<?xml version="1.0"?>
<VTKFile type="UnstructuredGrid"  version="0.1"  >
<UnstructuredGrid>
<Piece  NumberOfPoints="961" NumberOfCells="1800">
<Points>
<DataArray  type="Float64"  NumberOfComponents="3"  format="ascii">-2 -2 0  -1.866666666666667 -2 0  -1.733333333333333 -2 0  -1.6 -2 0  -1.466666666666667 -2 0  -1.333333333333333 -2 0  -1.2 -2 0  -1.066666666666667 -2 0  -0.9333333333333333 -2 0  -0.8 -2 0  -0.6666666666666667 -2 0  -0.5333333333333334 -2 0  -0.3999999999999999 -2 0  -0.2666666666666666 -2 0  -0.1333333333333333 -2 0  0 -2 0  0.1333333333333333 -2 0  0.2666666666666666 -2 0  0.3999999999999999 -2 0  0.5333333333333332 -2 0  0.6666666666666665 -2 0  0.7999999999999998 -2 0  0.9333333333333331 -2 0  1.066666666666667 -2 0  1.2 -2 0  1.333333333333333 -2 0  1.466666666666667 -2 0  1.6 -2 0  1.733333333333333 -2 0  1.866666666666667 -2 0  2 -2 0  -2 -1.866666666666667 0  -1.866666666666667 -1.866666666666667 0  -1.733333333333333 -1.866666666666667 0  -1.6 -1.866666666666667 0  -1.466666666666667 -1.866666666666667 0  -1.333333333333333 -1.866666666666667 0  -1.2 -1.866666666666667 0  -1.066666666666667 -1.866666666666667 0  -0.9333333333333333 -1.866666666666667 0  -0.8 -1.866666666666667 0  -0.6666666666666667 -1.866666666666667 0  -0.5333333333333334 -1.866666666666667 0  -0.3999999999999999 -1.866666666666667 0  -0.2666666666666666 -1.866666666666667 0  -0.1333333333333333 -1.866666666666667 0  0 -1.866666666666667 0  0.1333333333333333 -1.866666666666667 0  0.2666666666666666 -1.866666666666667 0  0.3999999999999999 -1.866666666666667 0  0.5333333333333332 -1.866666666666667 0  0.6666666666666665 -1.866666666666667 0  0.7999999999999998 -1.866666666666667 0  0.9333333333333331 -1.866666666666667 0  1.066666666666667 -1.866666666666667 0  1.2 -1.866666666666667 0  1.333333333333333 -1.866666666666667 0  1.466666666666667 -1.866666666666667 0  1.6 -1.866666666666667 0  1.733333333333333 -1.866666666666667 0  1.866666666666667 -1.866666666666667 0  2 -1.866666666666667 0  -2 -1.733333333333333 0  -1.866666666666667 -1.733333333333333 0  -1.733333333333333 -1.733333333333333 0  -1.6 -1.733333333333333 0  -1.466666666666667 -1.733333333333333 0  -1.333333333333333 -1.733333333333333 0  -1.2 -1.733333333333333 0  -1.066666666666667 -1.733333333333333 0  -0.9333333333333333 -1.733333333333333 0  -0.8 -1.733333333333333 0  -0.6666666666666667 -1.733333333333333 0  -0.5333333333333334 -1.733333333333333 0  -0.3999999999999999 -1.733333333333333 0  -0.2666666666666666 -1.733333333333333 0  -0.1333333333333333 -1.733333333333333 0  0 -1.733333333333333 0  0.1333333333333333 -1.733333333333333 0  0.2666666666666666 -1.733333333333333 0  0.3999999999999999 -1.733333333333333 0  0.5333333333333332 -1.733333333333333 0  0.6666666666666665 -1.733333333333333 0  0.7999999999999998 -1.733333333333333 0  0.9333333333333331 -1.733333333333333 0  1.066666666666667 -1.733333333333333 0  1.2 -1.733333333333333 0  1.333333333333333 -1.733333333333333 0  1.466666666666667 -1.733333333333333 0  1.6 -1.733333333333333 0  1.733333333333333 -1.733333333333333 0  1.866666666666667 -1.733333333333333 0  2 -1.733333333333333 0  -2 -1.6 0  -1.866666666666667 -1.6 0  -1.733333333333333 -1.6 0  -1.6 -1.6 0  -1.466666666666667 -1.6 0  -1.333333333333333 -1.6 0  -1.2 -1.6 0  -1.066666666666667 -1.6 0  -0.9333333333333333 -1.6 0  -0.8 -1.6 0  -0.6666666666666667 -1.6 0  -0.5333333333333334 -1.6 0  -0.3999999999999999 -1.6 0  -0.2666666666666666 -1.6 0  -0.1333333333333333 -1.6 0  0 -1.6 0  0.1333333333333333 -1.6 0  0.2666666666666666 -1.6 0  0.3999999999999999 -1.6 0  0.5333333333333332 -1.6 0  0.6666666666666665 -1.6 0  0.7999999999999998 -1.6 0  0.9333333333333331 -1.6 0  1.066666666666667 -1.6 0  1.2 -1.6 0  1.333333333333333 -1.6 0  1.466666666666667 -1.6 0  1.6 -1.6 0  1.733333333333333 -1.6 0  1.866666666666667 -1.6 0  2 -1.6 0  -2 -1.466666666666667 0  -1.866666666666667 -1.466666666666667 0  -1.733333333333333 -1.466666666666667 0  -1.6 -1.466666666666667 0  -1.466666666666667 -1.466666666666667 0  -1.333333333333333 -1.466666666666667 0  -1.2 -1.466666666666667 0  -1.066666666666667 -1.466666666666667 0  -0.9333333333333333 -1.466666666666667 0  -0.8 -1.466666666666667 0  -0.6666666666666667 -1.466666666666667 0  -0.5333333333333334 -1.466666666666667 0  -0.3999999999999999 -1.466666666666667 0  -0.2666666666666666 -1.466666666666667 0  -0.1333333333333333 -1.466666666666667 0  0 -1.466666666666667 0  0.1333333333333333 -1.466666666666667 0  0.2666666666666666 -1.466666666666667 0  0.3999999999999999 -1.466666666666667 0  0.5333333333333332 -1.466666666666667 0  0.6666666666666665 -1.466666666666667 0  0.7999999999999998 -1.466666666666667 0  0.9333333333333331 -1.466666666666667 0  1.066666666666667 -1.466666666666667 0  1.2 -1.466666666666667 0  1.333333333333333 -1.466666666666667 0  1.466666666666667 -1.466666666666667 0  1.6 -1.466666666666667 0  1.733333333333333 -1.466666666666667 0  1.866666666666667 -1.466666666666667 0  2 -1.466666666666667 0  -2 -1.333333333333333 0  -1.866666666666667 -1.333333333333333 0  -1.733333333333333 -1.333333333333333 0  -1.6 -1.333333333333333 0  -1.466666666666667 -1.333333333333333 0  -1.333333333333333 -1.333333333333333 0  -1.2 -1.333333333333333 0  -1.066666666666667 -1.333333333333333 0  -0.9333333333333333 -1.333333333333333 0  -0.8 -1.333333333333333 0  -0.6666666666666667 -1.333333333333333 0  -0.5333333333333334 -1.333333333333333 0  -0.3999999999999999 -1.333333333333333 0  -0.2666666666666666 -1.333333333333333 0  -0.1333333333333333 -1.333333333333333 0  0 -1.333333333333333 0  0.1333333333333333 -1.333333333333333 0  0.2666666666666666 -1.333333333333333 0  0.3999999999999999 -1.333333333333333 0  0.5333333333333332 -1.333333333333333 0  0.6666666666666665 -1.333333333333333 0  0.7999999999999998 -1.333333333333333 0  0.9333333333333331 -1.333333333333333 0  1.066666666666667 -1.333333333333333 0  1.2 -1.333333333333333 0  1.333333333333333 -1.333333333333333 0  1.466666666666667 -1.333333333333333 0  1.6 -1.333333333333333 0  1.733333333333333 -1.333333333333333 0  1.866666666666667 -1.333333333333333 0  2 -1.333333333333333 0  -2 -1.2 0  -1.866666666666667 -1.2 0  -1.733333333333333 -1.2 0  -1.6 -1.2 0  -1.466666666666667 -1.2 0  -1.333333333333333 -1.2 0  -1.2 -1.2 0  -1.066666666666667 -1.2 0  -0.9333333333333333 -1.2 0  -0.8 -1.2 0  -0.6666666666666667 -1.2 0  -0.5333333333333334 -1.2 0  -0.3999999999999999 -1.2 0  -0.2666666666666666 -1.2 0  -0.1333333333333333 -1.2 0  0 -1.2 0  0.1333333333333333 -1.2 0  0.2666666666666666 -1.2 0  0.3999999999999999 -1.2 0  0.5333333333333332 -1.2 0  0.6666666666666665 -1.2 0  0.7999999999999998 -1.2 0  0.9333333333333331 -1.2 0  1.066666666666667 -1.2 0  1.2 -1.2 0  1.333333333333333 -1.2 0  1.466666666666667 -1.2 0  1.6 -1.2 0  1.733333333333333 -1.2 0  1.866666666666667 -1.2 0  2 -1.2 0  -2 -1.066666666666667 0  -1.866666666666667 -1.066666666666667 0  -1.733333333333333 -1.066666666666667 0  -1.6 -1.066666666666667 0  -1.466666666666667 -1.066666666666667 0  -1.333333333333333 -1.066666666666667 0  -1.2 -1.066666666666667 0  -1.066666666666667 -1.066666666666667 0  -0.9333333333333333 -1.066666666666667 0  -0.8 -1.066666666666667 0  -0.6666666666666667 -1.066666666666667 0  -0.5333333333333334 -1.066666666666667 0  -0.3999999999999999 -1.066666666666667 0  -0.2666666666666666 -1.066666666666667 0  -0.1333333333333333 -1.066666666666667 0  0 -1.066666666666667 0  0.1333333333333333 -1.066666666666667 0  0.2666666666666666 -1.066666666666667 0  0.3999999999999999 -1.066666666666667 0  0.5333333333333332 -1.066666666666667 0  0.6666666666666665 -1.066666666666667 0  0.7999999999999998 -1.066666666666667 0  0.9333333333333331 -1.066666666666667 0  1.066666666666667 -1.066666666666667 0  1.2 -1.066666666666667 0  1.333333333333333 -1.066666666666667 0  1.466666666666667 -1.066666666666667 0  1.6 -1.066666666666667 0  1.733333333333333 -1.066666666666667 0  1.866666666666667 -1.066666666666667 0  2 -1.066666666666667 0  -2 -0.9333333333333333 0  -1.866666666666667 -0.9333333333333333 0  -1.733333333333333 -0.9333333333333333 0  -1.6 -0.9333333333333333 0  -1.466666666666667 -0.9333333333333333 0  -1.333333333333333 -0.9333333333333333 0  -1.2 -0.9333333333333333 0  -1.066666666666667 -0.9333333333333333 0  -0.9333333333333333 -0.9333333333333333 0  -0.8 -0.9333333333333333 0  -0.6666666666666667 -0.9333333333333333 0  -0.5333333333333334 -0.9333333333333333 0  -0.3999999999999999 -0.9333333333333333 0  -0.2666666666666666 -0.9333333333333333 0  -0.1333333333333333 -0.9333333333333333 0  0 -0.9333333333333333 0  0.1333333333333333 -0.9333333333333333 0  0.2666666666666666 -0.9333333333333333 0  0.3999999999999999 -0.9333333333333333 0  0.5333333333333332 -0.9333333333333333 0  0.6666666666666665 -0.9333333333333333 0  0.7999999999999998 -0.9333333333333333 0  0.9333333333333331 -0.9333333333333333 0  1.066666666666667 -0.9333333333333333 0  1.2 -0.9333333333333333 0  1.333333333333333 -0.9333333333333333 0  1.466666666666667 -0.9333333333333333 0  1.6 -0.9333333333333333 0  1.733333333333333 -0.9333333333333333 0  1.866666666666667 -0.9333333333333333 0  2 -0.9333333333333333 0  -2 -0.8 0  -1.866666666666667 -0.8 0  -1.733333333333333 -0.8 0  -1.6 -0.8 0  -1.466666666666667 -0.8 0  -1.333333333333333 -0.8 0  -1.2 -0.8 0  -1.066666666666667 -0.8 0  -0.9333333333333333 -0.8 0  -0.8 -0.8 0  -0.6666666666666667 -0.8 0  -0.5333333333333334 -0.8 0  -0.3999999999999999 -0.8 0  -0.2666666666666666 -0.8 0  -0.1333333333333333 -0.8 0  0 -0.8 0  0.1333333333333333 -0.8 0  0.2666666666666666 -0.8 0  0.3999999999999999 -0.8 0  0.5333333333333332 -0.8 0  0.6666666666666665 -0.8 0  0.7999999999999998 -0.8 0  0.9333333333333331 -0.8 0  1.066666666666667 -0.8 0  1.2 -0.8 0  1.333333333333333 -0.8 0  1.466666666666667 -0.8 0  1.6 -0.8 0  1.733333333333333 -0.8 0  1.866666666666667 -0.8 0  2 -0.8 0  -2 -0.6666666666666667 0  -1.866666666666667 -0.
[...]
<PointData  Scalars="f_12"> 
<DataArray  type="Float64"  Name="f_12"  format="ascii">0.0000000000000000e+00  0.0000000000000000e+00  0.0000000000000000e+00  0.0000000000000000e+00  0.0000000000000000e+00  0.0000000000000000e+00  0.0000000000000000e+00  0.0000000000000000e+00  0.0000000000000000e+00  0.0000000000000000e+00  0.0000000000000000e+00  0.0000000000000000e+00  0.0000000000000000e+00  0.0000000000000000e+00  0.0000000000000000e+00  0.0000000000000000e+00  0.0000000000000000e+00  0.0000000000000000e+00  0.0000000000000000e+00  0.0000000000000000e+00  0.0000000000000000e+00  0.0000000000000000e+00  0.0000000000000000e+00  0.0000000000000000e+00  0.0000000000000000e+00  0.0000000000000000e+00  0.0000000000000000e+00  0.0000000000000000e+00  0.0000000000000000e+00  0.0000000000000000e+00  0.0000000000000000e+00  0.0000000000000000e+00  1.8751490184541568e-04  3.7264526047773916e-04  5.5350562713970121e-04  7.2818462176097516e-04  8.9480796540316145e-04  1.0515740419894698e-03  1.1967798537321800e-03  1.3288427608653096e-03  1.4463197117470421e-03  1.5479244712303354e-03  1.6325429268938601e-03  1.6992463898877869e-03  1.7473027487376713e-03  1.7761853241728587e-03  1.7855792889443583e-03  1.7753855486426452e-03  1.7457220219924067e-03  1.6969223078703406e-03  1.6295317779630135e-03  1.5443011857266546e-03  1.4421779321240125e-03  1.3242951759284952e-03  1.1919590233579345e-03  1.0466340862604782e-03  8.8992778120655658e-04  7.2357391024690837e-04  5.4941647894590339e-04  3.6939586864613805e-04  1.8554307992993163e-04  0.0000000000000000e+00  0.0000000000000000e+00  3.7264526047773916e-04  7.4075973405058563e-04  1.1004590343354419e-03  1.4478986724564878e-03  1.7793350616973160e-03  2.0911780743874345e-03  2.3800370192339779e-03  2.6427619320433431e-03  2.8764810762788090e-03  3.0786348943331291e-03  3.2470063078705621e-03  3.3797471051539010e-03  3.4754000942889773e-03  3.5329167026263097e-03  3.5516697430773019e-03  3.5314611356852040e-03  3.4725244589439122e-03  3.3755223030099424e-03  3.2415384997359219e-03  3.0720654067434450e-03  2.8689865201663020e-03  2.6345547809914814e-03  2.3713670245233513e-03  2.0823351092552028e-03  1.7706543701739910e-03  1.4397702150535476e-03  1.0933440053380625e-03  7.3521997341324515e-04  3.6939586864613832e-04  0.0000000000000000e+00  0.0000000000000000e+00  5.5350562713970088e-04  1.1004590343354410e-03  1.6350005731446881e-03  2.1513745831533942e-03  2.6439966965807471e-03  3.1075203933251679e-03  3.5369001104654145e-03  3.9274502556205654e-03  4.2748998480073522e-03  4.5754424487942785e-03  4.8257809284922727e-03  5.0231665478132192e-03  5.1654318124514853e-03  5.2510165958731189e-03  5.2789870989082797e-03  5.2490473221896185e-03  5.1615428586933645e-03  5.0174569600461225e-03  4.8183989830451945e-03  4.5665854736473806e-03  4.2648142873553440e-03  3.9164322724293751e-03  3.5252971537858423e-03  3.0957343531302041e-03  2.6324895718405719e-03  2.1406780564697334e-03  1.6257315580164749e-03  1.0933440053380635e-03  5.4941647894590404e-04  0.0000000000000000e+00  0.0000000000000000e+00  7.2818462176097495e-04  1.4478986724564876e-03  2.1513745831533951e-03  2.8310025120179649e-03  3.4794118185162747e-03  4.0895529292038985e-03  4.6547768668257061e-03  5.1689109273289459e-03  5.6263295002160962e-03  6.0220191828592997e-03  6.3516373684673342e-03  6.6115634979346137e-03  6.7989422007415663e-03  6.9117176235004773e-03  6.9486583581671287e-03  6.9093725308701885e-03  6.7943127888848353e-03  6.6047711175972685e-03  6.3428636204388373e-03  6.0115055917205514e-03  5.6143773949969573e-03  5.1558818197733145e-03  4.6410937211900892e-03  4.0757028471863884e-03  3.4659508222731994e-03  2.8185632770895848e-03  2.1406780564697347e-03  1.4397702150535487e-03  7.2357391024690902e-04  0.0000000000000000e+00  0.0000000000000000e+00  8.9480796540316156e-04  1.7793350616973165e-03  2.6439966965807471e-03  3.4794118185162760e-03  4.2765015383465152e-03  5.0265873576824218e-03  5.7214869232386579e-03  6.3536056603557146e-03  6.9160229354372554e-03  7.4025715448493099e-03  7.8079093986337632e-03  8.1275823215943808e-03  8.3580769677409298e-03  8.4968629538181920e-03  8.5424234687343538e-03  8.4942738054511885e-03  8.3529674825378840e-03  8.1200898630355255e-03  7.7982394255739123e-03  7.3909970833173806e-03  6.9028841674380649e-03  6.3393098822040871e-03  5.7065091893682253e-03  5.0114721831301876e-03  4.2618660663279019e-03  3.4659508222732028e-03  2.6324895718405749e-03  1.7706543701739930e-03  8.8992778120655733e-04  0.0000000000000000e+00  0.0000000000000000e+00  1.0515740419894703e-03  2.0911780743874345e-03  3.1075203933251701e-03  4.0895529292039011e-03  5.0265873576824226e-03  5.9084097691334096e-03  6.7253922413148181e-03  7.4685997080305754e-03  8.1298906129511229e-03  8.7020099130305246e-03  9.1786730549318837e-03  9.5546396147556216e-03  9.8257753875413013e-03  9.9891018512447052e-03  1.0042832114296942e-02  9.9863926833608542e-03  9.8204306498854074e-03  9.5468061779306456e-03  9.1685704664963043e-03  8.6899296413584723e-03  8.1161952888591914e-03  7.4537225635815914e-03  6.7098369722168229e-03  5.8927510486019028e-03  5.0114721831301893e-03  4.0757028471863918e-03  3.0957343531302084e-03  2.0823351092552045e-03  1.0466340862604791e-03  0.0000000000000000e+00  0.0000000000000000e+00  1.1967798537321813e-03  2.3800370192339805e-03  3.5369001104654171e-03  4.6547768668257087e-03  5.7214869232386579e-03  6.7253922413148199e-03  7.6555237172417972e-03  8.5017023811795149e-03  9.2546535788842182e-03  9.9061125341673769e-03  1.0448919722338360e-02  1.0877104548559993e-02  1.1185955932612093e-02  1.1372078560709112e-02  1.1433433777453827e-02  1.1369364352121833e-02  1.1180602653143879e-02  1.0869262088532502e-02  1.0438812001048322e-02  9.8940365270406231e-03  9.2409782196289647e-03  8.4868674847168799e-03  7.6400390698277100e-03  6.7098369722168308e-03  5.7065091893682288e-03  4.6410937211900892e-03  3.5252971537858397e-03  2.3713670245233500e-03  1.1919590233579345e-03  0.0000000000000000e+00  0.0000000000000000e+00  1.3288427608653113e-03  2.6427619320433457e-03  3.9274502556205723e-03  5.1689109273289537e-03  6.3536056603557198e-03  7.4685997080305823e-03  8.5017023811795166e-03  9.4416014491393741e-03  1.0277989728657590e-02  1.1001682126968549e-02  1.1604721411526551e-02  1.2080471034710320e-02  1.2423693454657729e-02  1.2630612567849328e-02  1.2698959104612452e-02  1.2627998129004453e-02  1.2418538117742338e-02  1.2072921452807592e-02  1.1594996530066357e-02  1.0990072041626739e-02  1.0264854313341299e-02  9.4273688538610879e-03  8.4868674847168712e-03  7.4537225635815871e-03  6.3393098822040845e-03  5.1558818197733128e-03  3.9164322724293717e-03  2.6345547809914806e-03  1.3242951759284945e-03  0.0000000000000000e+00  0.0000000000000000e+00  1.4463197117470441e-03  2.8764810762788142e-03  4.2748998480073609e-03  5.6263295002161127e-03  6.9160229354372684e-03  8.1298906129511368e-03  9.2546535788842216e-03  1.0277989728657592e-02  1.1188671519107254e-02  1.1976693282464000e-02  1.2633386282240405e-02  1.3151519699444447e-02  1.3525385853137794e-02  1.3750868145413009e-02  1.3825490475389937e-02  1.3748447181982423e-02  1.3520612937580542e-02  1.3144532406561705e-02  1.2624389882889131e-02  1.1965959508113792e-02  1.1176537023884109e-02  1.0264854313341305e-02  9.2409782196289682e-03  8.1161952888591914e-03  6.9028841674380710e-03  5.6143773949969633e-03  4.2648142873553483e-03  2.8689865201663063e-03  1.4421779321240145e-03  0.0000000000000000e+00  0.0000000000000000e+00  1.5479244712303380e-03  3.0786348943331347e-03  4.5754424487942924e-03  6.0220191828593153e-03  7.4025715448493273e-03  8.7020099130305402e-03  9.9061125341673821e-03  1.1001682126968554e-02  1.1976693282464007e-02  1.2820428713206376e-02  1.3523602379352746e-02  1.4078467562758819e-02  1.4478908077835433e-02  1.4720511003102073e-02  1.4800619587380003e-02  1.4718365320484844e-02  1.4474678545428039e-02  1.4072277408184921e-02  1.3515635369677108e-02  1.2810927919338806e-02  1.1965959508113810e-02  1.0990072041626758e-02  9.8940365270406335e-03  8.6899296413584810e-03  7.3909970833173936e-03  6.0115055917205609e-03  4.5665854736473884e-03  3.0720654067434520e-03  1.5443011857266583e-03  0.0000000000000000e+00  0.0000000000000000e+00  1.6325429268938627e-03  3.2470063078705686e-03  4.8257809284922848e-03  6.3516373684673489e-03  7.8079093986337788e-03  9.1786730549318993e-03  1.0448919722338360e-02  1.1604721411526559e-02  1.2633386282240410e-02  1.3523602379352745e-02  1.4265567516878375e-02  1.4851103285131645e-02  1.5273751275708108e-02  1.5528849821414418e-02  1.5613589830657837e-02  1.5527048648539430e-02  1.5270201284317149e-02  1.4845908786504774e-02  1.4258883999008773e-02  1.3515635369677122e-02  1.2624389882889166e-02  1.1594996530066385e-02  1.0438812001048334e-02  9.1685704664963338e-03  7.7982394255739313e-03  6.3428636204388511e-03  4.8183989830452066e-03  3.2415384997359336e-03  1.6295317779630191e-03  0.0000000000000000e+00  0.0000000000000000e+00  1.6992463898877893e-03  3.3797471051539040e-03  5.0231665478132313e-03  6.6115634979346267e-03  8.1275823215943982e-03  9.5546396147556320e-03  1.0877104548559998e-02  1.2080471034710324e-02  1.3151519699444454e-02  1.4078467562758825e-02  1.4851103285131634e-02  1.5460905882300370e-02  1.5901144929834993e-02  1.6166960487244909e-02  1.6255421263168552e-02  1.6165559908835874e-02  1.5898384750135854e-02  1.5456867727871080e-02  1.4845908786504767e-02  1.4072277408184933e-02  1.3144532406561726e-02  1.2072921452807623e-02  1.0869262088532526e-02  9.5468061779306682e-03  8.1200898630355497e-03  6.6047711175972893e-03  5.0174569600461381e-03  3.3755223030099541e-03  1.6969223078703473e-03  0.0000000000000000e+00  0.0000000000000000e+00  1.7473027487376739e-03  3.4754000942889825e-03  5.1654318124514922e-03  6.7989422007415767e-03  8.3580769677409385e-03  9.8257753875413099e-03  1.1185955932612094e-02  1.2423693454657733e-02  1.3525385853137789e-02  1.4478908077835443e-02  1.5273751275708099e-02  1.5901144929834955e-02  1.6354159960714404e-02  1.6627790971933013e-02  1.6719016120488889e-02  1.6626833466660471e-02  1.6352273092532135e-02  1.5898384750135861e-02  1.5270201284317157e-02  1.4474678545428051e-02  1.3520612937580565e-02  1.2418538117742369e-02  1.1180602653143900e-02  9.8204306498854352e-03  8.3529674825379083e-03  6.7943127888848579e-03  5.1615428586933802e-03  3.4725244589439252e-03  1.7457220219924143e-03  0.0000000000000000e+00  0.0000000000000000e+00  1.7761853241728635e-03  3.5329167026263175e-03  5.2510165958731276e-03  6.9117176235004843e-03  8.4968629538181954e-03  9.9891018512447121e-03  1.1372078560709114e-02  1.2630612567849331e-02  1.3750868145413009e-02  1.4720511003102073e-02  1.5528849821414422e-02  1.6166960487244884e-02  1.6627790971933010e-02  1.6906245006031141e-02  1.6999243006705203e-02  1.6905759093237199e-02  1.6626833466660489e-02  1.6165559908835881e-02  1.5527048648539455e-02  1.4718365320484868e-02  1.3748447181982452e-02  1.2627998129004489e-02  1.1369364352121865e-02  9.9863926833608872e-03  8.4942738054512180e-03  6.9093725308702111e-03  5.2490473221896350e-03  3.5314611356852162e-03  1.7753855486426528e-03  0.0000000000000000e+00  0.0000000000000000e+00  1.7855792889443624e-03  3.5516697430773092e-03  5.2789870989082841e-03  6.9486583581671356e-03  8.5424234687343642e-03  1.0042832114296954e-02  1.1433433777453830e-02  1.2698959104612459e-02  1.3825490475389944e-02  1.4800619587380005e-02  1.5613589830657843e-02  1.6255421263168545e-02  1.6719016120488889e-02  1.6999243006705200e-02  1.7092998214970900e-02  1.6999243006705210e-02  1.6719016120488893e-02  1.6255421263168542e-02  1.5613589830657849e-02  1.4800619587380015e-02  1.3825490475389963e-02  1.2698959104612488e-02  1.1433433777453861e-02  1.0042832114296978e-02  8.5424234687343885e-03  6.9486583581671556e-03  5.2789870989082971e-03  3.5516697430773149e-03  1.7855792889443661e-03  0.0000000000000000e+00  0.0000000000000000e+00  1.7753855486426493e-03  3.5314611356852101e-03  5.2490473221896245e-03  6.9093725308701963e-03  8.4942738054512058e-03  9.9863926833608681e-03  1.1369364352121845e-02  1.2627998129004466e-02  1.3748447181982449e-02  1.4718365320484863e-02  1.5527048648539458e-02  1.6165559908835888e-02  1.6626833466660492e-02  1.6905759093237206e-02  1.6999243006705207e-02  1.6906245006031162e-02  1.6627790971933017e-02  1.6166960487244895e-02  1.5528849821414429e-02  1.4720511003102088e-02  1.3750868145413028e-02  1.2630612567849361e-02  1.1372078560709141e-02  9.9891018512447329e-03  8.4968629538182214e-03  6.9117176235005025e-03  5.2510165958731380e-03  3.5329167026263231e-03  1.7761853241728669e-03  0.0000000000000000e+00  0.0000000000000000e+00  1.7457220219924108e-03  3.4725244589439187e-03  5.1615428586933697e-03  6.7943127888848483e-03  8.3529674825378961e-03  9.8204306498854161e-03  1.1180602653143882e-02  1.2418538117742349e-02  1.3520612937580549e-02  1.4474678545428067e-02  1.5270201284317183e-02  1.5898384750135879e-02  1.6352273092532142e-02  1.6626833466660509e-02  1.6719016120488893e-02  1.6627790971933017e-02  1.6354159960714411e-02  1.5901144929834993e-02  1.5273751275708116e-02  1.4478908077835459e-02  1.3525385853137822e-02  1.2423693454657768e-02  1.1185955932612113e-02  9.8257753875413186e-03  8.3580769677409558e-03  6.7989422007415897e-03  5.1654318124515035e-03  3.4754000942889890e-03  1.7473027487376783e-03  0.0000000000000000e+00  0.0000000000000000e+00  1.6969223078703447e-03  3.3755223030099489e-03  5.0174569600461311e-03  6.6047711175972797e-03  8.1200898630355428e-03  9.5468061779306577e-03  1.0869262088532504e-02  1.2072921452807597e-02  1.3144532406561717e-02  1.4072277408184937e-02  1.4845908786504781e-02  1.5456867727871094e-02  1.5898384750135882e-02  1.6165559908835888e-02  1.6255421263168545e-02  1.6166960487244898e-02  1.5901144929834996e-02  1.5460905882300381e-02  1.4851103285131648e-02  1.4078467562758830e-02  1.3151519699444468e-02  1.2080471034710352e-02  1.0877104548560012e-02  9.5546396147556389e-03  8.1275823215944069e-03  6.6115634979346336e-03  5.0231665478132357e-03  3.3797471051539114e-03  1.6992463898877928e-03  0.0000000000000000e+00  0.0000000000000000e+00  1.6295317779630163e-03  3.2415384997359280e-03  4.8183989830452014e-03  6.3428636204388451e-03  7.7982394255739296e-03  9.1685704664963303e-03  1.0438812001048322e-02  1.1594996530066362e-02  1.2624389882889149e-02  1.3515635369677117e-02  1.4258883999008782e-02  1.4845908786504785e-02  1.5270201284317152e-02  1.5527048648539453e-02  1.5613589830657845e-02  1.5528849821414422e-02  1.5273751275708111e-02  1.4851103285131640e-02  1.4265567516878384e-02  1.3523602379352757e-02  1.2633386282240429e-02  1.1604721411526582e-02  1.0448919722338365e-02  9.1786730549319028e-03  7.8079093986337814e-03  6.3516373684673524e-03  4.8257809284922874e-03  3.2470063078705712e-03  1.6325429268938660e-03  0.0000000000000000e+00  0.0000000000000000e+00  1.5443011857266575e-03  3.0720654067434511e-03  4.5665854736473919e-03  6.0115055917205609e-03  7.3909970833173962e-03  8.6899296413584862e-03  9.8940365270406266e-03  1.0990072041626747e-02  1.1965959508113808e-02  1.2810927919338815e-02  1.3515635369677126e-02  1.4072277408184944e-02  1.4474678545428048e-02  1.4718365320484863e-02  1.4800619587380015e-02  1.4720511003102085e-02  1.4478908077835455e-02  1.4078467562758840e-02  1.3523602379352769e-02  1.2820428713206405e-02  1.1976693282464033e-02  1.1001682126968580e-02  9.9061125341674081e-03  8.7020099130305558e-03  7.4025715448493455e-03  6.0220191828593258e-03  4.5754424487942985e-03  3.0786348943331421e-03  1.5479244712303436e-03  0.0000000000000000e+00  0.0000000000000000e+00  1.4421779321240151e-03  2.8689865201663089e-03  4.2648142873553552e-03  5.6143773949969685e-03  6.9028841674380823e-03  8.1161952888592088e-03  9.2409782196289682e-03  1.0264854313341303e-02  1.1176537023884119e-02  1.1965959508113811e-02  1.2624389882889163e-02  1.3144532406561736e-02  1.3520612937580565e-02  1.3748447181982442e-02  1.3825490475389954e-02  1.3750868145413016e-02  1.3525385853137806e-02  1.3151519699444482e-02  1.2633386282240450e-02  1.1976693282464056e-02  1.1188671519107310e-02  1.0277989728657648e-02  9.2546535788842650e-03  8.1298906129511610e-03  6.9160229354372927e-03  5.6263295002161283e-03  4.2748998480073748e-03  2.8764810762788250e-03  1.4463197117470503e-03  0.0000000000000000e+00  0.0000000000000000e+00  1.3242951759284986e-03  2.6345547809914884e-03  3.9164322724293890e-03  5.1558818197733275e-03  6.3393098822041036e-03  7.4537225635816070e-03  8.4868674847168868e-03  9.4273688538610984e-03  1.0264854313341319e-02  1.0990072041626761e-02  1.1594996530066386e-02  1.2072921452807625e-02  1.2418538117742373e-02  1.2627998129004489e-02  1.2698959104612488e-02  1.2630612567849357e-02  1.2423693454657755e-02  1.2080471034710358e-02  1.1604721411526606e-02  1.1001682126968610e-02  1.0277989728657663e-02  9.4416014491394418e-03  8.5017023811795687e-03  7.4685997080306231e-03  6.3536056603557588e-03  5.1689109273289789e-03  3.9274502556205897e-03  2.6427619320433596e-03  1.3288427608653182e-03  0.0000000000000000e+00  0.0000000000000000e+00  1.1919590233579382e-03  2.3713670245233583e-03  3.5252971537858536e-03  4.6410937211901005e-03  5.7065091893682453e-03  6.7098369722168446e-03  7.6400390698277256e-03  8.4868674847168816e-03  9.2409782196289734e-03  9.8940365270406370e-03  1.0438812001048339e-02  1.0869262088532519e-02  1.1180602653143901e-02  1.1369364352121865e-02  1.1433433777453855e-02  1.1372078560709138e-02  1.1185955932612124e-02  1.0877104548560026e-02  1.0448919722338398e-02  9.9061125341674324e-03  9.2546535788842806e-03  8.5017023811795774e-03  7.6555237172418449e-03  6.7253922413148615e-03  5.7214869232386908e-03  4.6547768668257321e-03  3.5369001104654345e-03  2.3800370192339913e-03  1.1967798537321865e-03  0.0000000000000000e+00  0.0000000000000000e+00  1.0466340862604817e-03  2.0823351092552102e-03  3.0957343531302184e-03  4.0757028471864023e-03  5.0114721831302032e-03  5.8927510486019158e-03  6.7098369722168377e-03  7.4537225635815923e-03  8.1161952888591914e-03  8.6899296413584844e-03  9.1685704664963338e-03  9.5468061779306664e-03  9.8204306498854334e-03  9.9863926833608820e-03  1.0042832114296973e-02  9.9891018512447347e-03  9.8257753875413256e-03  9.5546396147556546e-03  9.1786730549319306e-03  8.7020099130305766e-03  8.1298906129511819e-03  7.4685997080306352e-03  6.7253922413148658e-03  5.9084097691334417e-03  5.0265873576824435e-03  4.0895529292039184e-03  3.1075203933251818e-03  2.0911780743874432e-03  1.0515740419894744e-03  0.0000000000000000e+00  0.0000000000000000e+00  8.8992778120655972e-04  1.7706543701739980e-03  2.6324895718405827e-03  3.4659508222732111e-03  4.2618660663279132e-03  5.0114721831302014e-03  5.7065091893682349e-03  6.3393098822040854e-03  6.9028841674380684e-03  7.3909970833173945e-03  7.7982394255739261e-03  8.1200898630355411e-03  8.3529674825379065e-03  8.4942738054512180e-03  8.5424234687343746e-03  8.4968629538182232e-03  8.3580769677409610e-03  8.1275823215944173e-03  7.8079093986338013e-03  7.4025715448493646e-03  6.9160229354373126e-03  6.3536056603557727e-03  5.7214869232387004e-03  5.0265873576824495e-03  4.2765015383465377e-03  3.4794118185162907e-03  2.6439966965807588e-03  1.7793350616973230e-03  8.9480796540316514e-04  0.0000000000000000e+00  0.0000000000000000e+00  7.2357391024691108e-04  1.4397702150535532e-03  2.1406780564697417e-03  2.8185632770895935e-03  3.4659508222732115e-03  4.0757028471863996e-03  4.6410937211900944e-03  5.1558818197733162e-03  5.6143773949969642e-03  6.0115055917205592e-03  6.3428636204388485e-03  6.6047711175972841e-03  6.7943127888848587e-03  6.9093725308702067e-03  6.9486583581671478e-03  6.9117176235005007e-03  6.7989422007415966e-03  6.6115634979346475e-03  6.3516373684673680e-03  6.0220191828593414e-03  5.6263295002161439e-03  5.1689109273289910e-03  4.6547768668257399e