<?xml version="1.0"?>
<VTKFile type="UnstructuredGrid"  version="0.1"  >
<UnstructuredGrid>
<Piece  NumberOfPoints="961" NumberOfCells="1800">
<Points>
<DataArray  type="Float64"  NumberOfComponents="3"  format="ascii">-2 -2 0  -1.866666666666667 -2 0  -1.733333333333333 -2 0  -1.6 -2 0  -1.466666666666667 -2 0  -1.333333333333333 -2 0  -1.2 -2 0  -1.066666666666667 -2 0  -0.9333333333333333 -2 0  -0.8 -2 0  -0.6666666666666667 -2 0  -0.5333333333333334 -2 0  -0.3999999999999999 -2 0  -0.2666666666666666 -2 0  -0.1333333333333333 -2 0  0 -2 0  0.1333333333333333 -2 0  0.2666666666666666 -2 0  0.3999999999999999 -2 0  0.5333333333333332 -2 0  0.6666666666666665 -2 0  0.7999999999999998 -2 0  0.9333333333333331 -2 0  1.066666666666667 -2 0  1.2 -2 0  1.333333333333333 -2 0  1.466666666666667 -2 0  1.6 -2 0  1.733333333333333 -2 0  1.866666666666667 -2 0  2 -2 0  -2 -1.866666666666667 0  -1.866666666666667 -1.866666666666667 0  -1.733333333333333 -1.866666666666667 0  -1.6 -1.866666666666667 0  -1.466666666666667 -1.866666666666667 0  -1.333333333333333 -1.866666666666667 0  -1.2 -1.866666666666667 0  -1.066666666666667 -1.866666666666667 0  -0.9333333333333333 -1.866666666666667 0  -0.8 -1.866666666666667 0  -0.6666666666666667 -1.866666666666667 0  -0.5333333333333334 -1.866666666666667 0  -0.3999999999999999 -1.866666666666667 0  -0.2666666666666666 -1.866666666666667 0  -0.1333333333333333 -1.866666666666667 0  0 -1.866666666666667 0  0.1333333333333333 -1.866666666666667 0  0.2666666666666666 -1.866666666666667 0  0.3999999999999999 -1.866666666666667 0  0.5333333333333332 -1.866666666666667 0  0.6666666666666665 -1.866666666666667 0  0.7999999999999998 -1.866666666666667 0  0.9333333333333331 -1.866666666666667 0  1.066666666666667 -1.866666666666667 0  1.2 -1.866666666666667 0  1.333333333333333 -1.866666666666667 0  1.466666666666667 -1.866666666666667 0  1.6 -1.866666666666667 0  1.733333333333333 -1.866666666666667 0  1.866666666666667 -1.866666666666667 0  2 -1.866666666666667 0  -2 -1.733333333333333 0  -1.866666666666667 -1.733333333333333 0  -1.733333333333333 -1.733333333333333 0  -1.6 -1.733333333333333 0  -1.466666666666667 -1.733333333333333 0  -1.333333333333333 -1.733333333333333 0  -1.2 -1.733333333333333 0  -1.066666666666667 -1.733333333333333 0  -0.9333333333333333 -1.733333333333333 0  -0.8 -1.733333333333333 0  -0.6666666666666667 -1.733333333333333 0  -0.5333333333333334 -1.733333333333333 0  -0.3999999999999999 -1.733333333333333 0  -0.2666666666666666 -1.733333333333333 0  -0.1333333333333333 -1.733333333333333 0  0 -1.733333333333333 0  0.1333333333333333 -1.733333333333333 0  0.2666666666666666 -1.733333333333333 0  0.3999999999999999 -1.733333333333333 0  0.5333333333333332 -1.733333333333333 0  0.6666666666666665 -1.733333333333333 0  0.7999999999999998 -1.733333333333333 0  0.9333333333333331 -1.733333333333333 0  1.066666666666667 -1.733333333333333 0  1.2 -1.733333333333333 0  1.333333333333333 -1.733333333333333 0  1.466666666666667 -1.733333333333333 0  1.6 -1.733333333333333 0  1.733333333333333 -1.733333333333333 0  1.866666666666667 -1.733333333333333 0  2 -1.733333333333333 0  -2 -1.6 0  -1.866666666666667 -1.6 0  -1.733333333333333 -1.6 0  -1.6 -1.6 0  -1.466666666666667 -1.6 0  -1.333333333333333 -1.6 0  -1.2 -1.6 0  -1.066666666666667 -1.6 0  -0.9333333333333333 -1.6 0  -0.8 -1.6 0  -0.6666666666666667 -1.6 0  -0.5333333333333334 -1.6 0  -0.3999999999999999 -1.6 0  -0.2666666666666666 -1.6 0  -0.1333333333333333 -1.6 0  0 -1.6 0  0.1333333333333333 -1.6 0  0.2666666666666666 -1.6 0  0.3999999999999999 -1.6 0  0.5333333333333332 -1.6 0  0.6666666666666665 -1.6 0  0.7999999999999998 -1.6 0  0.9333333333333331 -1.6 0  1.066666666666667 -1.6 0  1.2 -1.6 0  1.333333333333333 -1.6 0  1.466666666666667 -1.6 0  1.6 -1.6 0  1.733333333333333 -1.6 0  1.866666666666667 -1.6 0  2 -1.6 0  -2 -1.466666666666667 0  -1.866666666666667 -1.466666666666667 0  -1.733333333333333 -1.466666666666667 0  -1.6 -1.466666666666667 0  -1.466666666666667 -1.466666666666667 0  -1.333333333333333 -1.466666666666667 0  -1.2 -1.466666666666667 0  -1.066666666666667 -1.466666666666667 0  -0.9333333333333333 -1.466666666666667 0  -0.8 -1.466666666666667 0  -0.6666666666666667 -1.466666666666667 0  -0.5333333333333334 -1.466666666666667 0  -0.3999999999999999 -1.466666666666667 0  -0.2666666666666666 -1.466666666666667 0  -0.1333333333333333 -1.466666666666667 0  0 -1.466666666666667 0  0.1333333333333333 -1.466666666666667 0  0.2666666666666666 -1.466666666666667 0  0.3999999999999999 -1.466666666666667 0  0.5333333333333332 -1.466666666666667 0  0.6666666666666665 -1.466666666666667 0  0.7999999999999998 -1.466666666666667 0  0.9333333333333331 -1.466666666666667 0  1.066666666666667 -1.466666666666667 0  1.2 -1.466666666666667 0  1.333333333333333 -1.466666666666667 0  1.466666666666667 -1.466666666666667 0  1.6 -1.466666666666667 0  1.733333333333333 -1.466666666666667 0  1.866666666666667 -1.466666666666667 0  2 -1.466666666666667 0  -2 -1.333333333333333 0  -1.866666666666667 -1.333333333333333 0  -1.733333333333333 -1.333333333333333 0  -1.6 -1.333333333333333 0  -1.466666666666667 -1.333333333333333 0  -1.333333333333333 -1.333333333333333 0  -1.2 -1.333333333333333 0  -1.066666666666667 -1.333333333333333 0  -0.9333333333333333 -1.333333333333333 0  -0.8 -1.333333333333333 0  -0.6666666666666667 -1.333333333333333 0  -0.5333333333333334 -1.333333333333333 0  -0.3999999999999999 -1.333333333333333 0  -0.2666666666666666 -1.333333333333333 0  -0.1333333333333333 -1.333333333333333 0  0 -1.333333333333333 0  0.1333333333333333 -1.333333333333333 0  0.2666666666666666 -1.333333333333333 0  0.3999999999999999 -1.333333333333333 0  0.5333333333333332 -1.333333333333333 0  0.6666666666666665 -1.333333333333333 0  0.7999999999999998 -1.333333333333333 0  0.9333333333333331 -1.333333333333333 0  1.066666666666667 -1.333333333333333 0  1.2 -1.333333333333333 0  1.333333333333333 -1.333333333333333 0  1.466666666666667 -1.333333333333333 0  1.6 -1.333333333333333 0  1.733333333333333 -1.333333333333333 0  1.866666666666667 -1.333333333333333 0  2 -1.333333333333333 0  -2 -1.2 0  -1.866666666666667 -1.2 0  -1.733333333333333 -1.2 0  -1.6 -1.2 0  -1.466666666666667 -1.2 0  -1.333333333333333 -1.2 0  -1.2 -1.2 0  -1.066666666666667 -1.2 0  -0.9333333333333333 -1.2 0  -0.8 -1.2 0  -0.6666666666666667 -1.2 0  -0.5333333333333334 -1.2 0  -0.3999999999999999 -1.2 0  -0.2666666666666666 -1.2 0  -0.1333333333333333 -1.2 0  0 -1.2 0  0.1333333333333333 -1.2 0  0.2666666666666666 -1.2 0  0.3999999999999999 -1.2 0  0.5333333333333332 -1.2 0  0.6666666666666665 -1.2 0  0.7999999999999998 -1.2 0  0.9333333333333331 -1.2 0  1.066666666666667 -1.2 0  1.2 -1.2 0  1.333333333333333 -1.2 0  1.466666666666667 -1.2 0  1.6 -1.2 0  1.733333333333333 -1.2 0  1.866666666666667 -1.2 0  2 -1.2 0  -2 -1.066666666666667 0  -1.866666666666667 -1.066666666666667 0  -1.733333333333333 -1.066666666666667 0  -1.6 -1.066666666666667 0  -1.466666666666667 -1.066666666666667 0  -1.333333333333333 -1.066666666666667 0  -1.2 -1.066666666666667 0  -1.066666666666667 -1.066666666666667 0  -0.9333333333333333 -1.066666666666667 0  -0.8 -1.066666666666667 0  -0.6666666666666667 -1.066666666666667 0  -0.5333333333333334 -1.066666666666667 0  -0.3999999999999999 -1.066666666666667 0  -0.2666666666666666 -1.066666666666667 0  -0.1333333333333333 -1.066666666666667 0  0 -1.066666666666667 0  0.1333333333333333 -1.066666666666667 0  0.2666666666666666 -1.066666666666667 0  0.3999999999999999 -1.066666666666667 0  0.5333333333333332 -1.066666666666667 0  0.6666666666666665 -1.066666666666667 0  0.7999999999999998 -1.066666666666667 0  0.9333333333333331 -1.066666666666667 0  1.066666666666667 -1.066666666666667 0  1.2 -1.066666666666667 0  1.333333333333333 -1.066666666666667 0  1.466666666666667 -1.066666666666667 0  1.6 -1.066666666666667 0  1.733333333333333 -1.066666666666667 0  1.866666666666667 -1.066666666666667 0  2 -1.066666666666667 0  -2 -0.9333333333333333 0  -1.866666666666667 -0.9333333333333333 0  -1.733333333333333 -0.9333333333333333 0  -1.6 -0.9333333333333333 0  -1.466666666666667 -0.9333333333333333 0  -1.333333333333333 -0.9333333333333333 0  -1.2 -0.9333333333333333 0  -1.066666666666667 -0.9333333333333333 0  -0.9333333333333333 -0.9333333333333333 0  -0.8 -0.9333333333333333 0  -0.6666666666666667 -0.9333333333333333 0  -0.5333333333333334 -0.9333333333333333 0  -0.3999999999999999 -0.9333333333333333 0  -0.2666666666666666 -0.9333333333333333 0  -0.1333333333333333 -0.9333333333333333 0  0 -0.9333333333333333 0  0.1333333333333333 -0.9333333333333333 0  0.2666666666666666 -0.9333333333333333 0  0.3999999999999999 -0.9333333333333333 0  0.5333333333333332 -0.9333333333333333 0  0.6666666666666665 -0.9333333333333333 0  0.7999999999999998 -0.9333333333333333 0  0.9333333333333331 -0.9333333333333333 0  1.066666666666667 -0.9333333333333333 0  1.2 -0.9333333333333333 0  1.333333333333333 -0.9333333333333333 0  1.466666666666667 -0.9333333333333333 0  1.6 -0.9333333333333333 0  1.733333333333333 -0.9333333333333333 0  1.866666666666667 -0.9333333333333333 0  2 -0.9333333333333333 0  -2 -0.8 0  -1.866666666666667 -0.8 0  -1.733333333333333 -0.8 0  -1.6 -0.8 0  -1.466666666666667 -0.8 0  -1.333333333333333 -0.8 0  -1.2 -0.8 0  -1.066666666666667 -0.8 0  -0.9333333333333333 -0.8 0  -0.8 -0.8 0  -0.6666666666666667 -0.8 0  -0.5333333333333334 -0.8 0  -0.3999999999999999 -0.8 0  -0.2666666666666666 -0.8 0  -0.1333333333333333 -0.8 0  0 -0.8 0  0.1333333333333333 -0.8 0  0.2666666666666666 -0.8 0  0.3999999999999999 -0.8 0  0.5333333333333332 -0.8 0  0.6666666666666665 -0.8 0  0.7999999999999998 -0.8 0  0.9333333333333331 -0.8 0  1.066666666666667 -0.8 0  1.2 -0.8 0  1.333333333333333 -0.8 0  1.466666666666667 -0.8 0  1.6 -0.8 0  1.733333333333333 -0.8 0  1.866666666666667 -0.8 0  2 -0.8 0  -2 -0.6666666666666667 0  -1.866666666666667 -0.
[...]
<PointData  Scalars="f_12"> 
<DataArray  type="Float64"  Name="f_12"  format="ascii">0.0000000000000000e+00  0.0000000000000000e+00  0.0000000000000000e+00  0.0000000000000000e+00  0.0000000000000000e+00  0.0000000000000000e+00  0.0000000000000000e+00  0.0000000000000000e+00  0.0000000000000000e+00  0.0000000000000000e+00  0.0000000000000000e+00  0.0000000000000000e+00  0.0000000000000000e+00  0.0000000000000000e+00  0.0000000000000000e+00  0.0000000000000000e+00  0.0000000000000000e+00  0.0000000000000000e+00  0.0000000000000000e+00  0.0000000000000000e+00  0.0000000000000000e+00  0.0000000000000000e+00  0.0000000000000000e+00  0.0000000000000000e+00  0.0000000000000000e+00  0.0000000000000000e+00  0.0000000000000000e+00  0.0000000000000000e+00  0.0000000000000000e+00  0.0000000000000000e+00  0.0000000000000000e+00  0.0000000000000000e+00  2.7712552431052764e-04  5.5077405621874881e-04  8.1819198418091397e-04  1.0765798860965471e-03  1.3231818014268716e-03  1.5553356091480514e-03  1.7705107663190062e-03  1.9663413247297920e-03  2.1406566237659620e-03  2.2915101746292100e-03  2.4172065132438258e-03  2.5163254817096451e-03  2.5877432739122149e-03  2.6306495715880916e-03  2.6445601702077882e-03  2.6293246300065176e-03  2.5851286693174685e-03  2.5124912273441786e-03  2.4122563431407309e-03  2.2855802086510502e-03  2.1339139400396367e-03  1.9589827613146261e-03  1.7627624026840504e-03  1.5474535907500555e-03  1.3154555799215701e-03  1.0693398316541749e-03  8.1182543392066856e-04  5.4575940829083489e-04  2.7411015643895379e-04  0.0000000000000000e+00  0.0000000000000000e+00  5.5077405621874870e-04  1.0949403224368565e-03  1.6268259829238412e-03  2.1408005053332644e-03  2.6313593502705172e-03  3.0931976614170589e-03  3.5212770760073165e-03  3.9108885346076667e-03  4.2577122228378882e-03  4.5578745504859476e-03  4.8080013478887622e-03  5.0052660655241464e-03  5.1474315982000156e-03  5.2328843676035354e-03  5.2606594545333771e-03  5.2304558475859261e-03  5.1426412387712804e-03  4.9982462149651911e-03  4.7989481310415838e-03  4.5470453697719045e-03  4.2454230623927090e-03  3.8975116367710194e-03  3.5072397637176660e-03  3.0789833899288388e-03  2.6175126081498710e-03  2.1279381934973130e-03  1.6156598704563819e-03  1.0863189925378993e-03  5.4575940829083532e-04  0.0000000000000000e+00  0.0000000000000000e+00  8.1819198418091397e-04  1.6268259829238414e-03  2.4173439607836100e-03  3.1813160141790763e-03  3.9105306511371708e-03  4.5970874283912510e-03  5.2334886049251860e-03  5.8127290361579811e-03  6.3283836486481533e-03  6.7746913420800355e-03  7.1466336626557119e-03  7.4400062492717333e-03  7.6514809126593062e-03  7.7786562710985309e-03  7.8200951205614367e-03  7.7753471355896109e-03  7.6449560418286088e-03  7.4304510246690752e-03  7.1343227880288664e-03  6.7599852991322065e-03  6.3117247995763022e-03  5.7946380897603185e-03  5.2145623767213926e-03  4.5779991063528477e-03  3.8920341914712810e-03  3.1642569247566101e-03  2.4026796495577240e-03  1.6156598704563829e-03  8.1182543392066921e-04  0.0000000000000000e+00  0.0000000000000000e+00  1.0765798860965466e-03  2.1408005053332631e-03  3.1813160141790763e-03  4.1869798114337626e-03  5.1469529104781397e-03  6.0508174569582560e-03  6.8886921709842251e-03  7.6513477262511514e-03  8.3303202629876460e-03  8.9180209301051045e-03  9.4078389511013175e-03  9.7942354083648316e-03  1.0072824834917922e-02  1.0240441827197386e-02  1.0295190247779588e-02  1.0236473147985188e-02  1.0065002262074697e-02  9.7827867475526534e-03  9.3931017013685822e-03  8.9004377986879185e-03  8.3104341130706902e-03  7.6297967288747629e-03  6.8662061090197148e-03  6.0282163132450977e-03  5.1251490704833751e-03  4.1669853988130856e-03  3.1642569247566131e-03  2.1279381934973143e-03  1.0693398316541764e-03  0.0000000000000000e+00  0.0000000000000000e+00  1.3231818014268718e-03  2.6313593502705164e-03  3.9105306511371674e-03  5.1469529104781388e-03  6.3272734422353972e-03  7.4386656439928110e-03  8.4689679335434084e-03  9.4068235153165307e-03  1.0241818592962994e-02  1.0964616212365070e-02  1.1567082477529507e-02  1.2042401572179451e-02  1.2385175932909009e-02  1.2591508099599576e-02  1.2659061220992017e-02  1.2587095891438855e-02  1.2376481886543982e-02  1.2029684378893461e-02  1.1550725266837080e-02  1.0945121252181420e-02  1.0219801174385377e-02  9.3830057795404077e-03  8.4441735206517831e-03  7.4138161218133573e-03  6.3033874840290422e-03  5.1251490704833803e-03  3.8920341914712858e-03  2.6175126081498736e-03  1.3154555799215714e-03  0.0000000000000000e+00  0.0000000000000000e+00  1.5553356091480516e-03  3.0931976614170594e-03  4.5970874283912527e-03  6.0508174569582586e-03  7.4386656439928145e-03  8.7455338529661419e-03  9.9571097468802005e-03  1.1060029813851709e-02  1.2042040897343353e-02  1.2892156891777331e-02  1.3600806708837806e-02  1.4159969258971627e-02  1.4563291102935272e-02  1.4806182651155148e-02  1.4885889328365043e-02  1.4801534946740103e-02  1.4554135581885768e-02  1.4146583438975565e-02  1.3583601433214647e-02  1.2871670387197318e-02  1.2018931770420630e-02  1.1035069690285051e-02  9.9311763279633421e-03  8.7196051612458587e-03  7.4138161218133590e-03  6.0282163132451012e-03  4.5779991063528511e-03  3.0789833899288405e-03  1.5474535907500570e-03  0.0000000000000000e+00  0.0000000000000000e+00  1.7705107663190079e-03  3.5212770760073204e-03  5.2334886049251904e-03  6.8886921709842269e-03  8.4689679335434118e-03  9.9571097468802057e-03  1.1336808748291186e-02  1.2592838238495488e-02  1.3711236960164181e-02  1.4679487024884873e-02  1.5486682053435173e-02  1.6123680663710008e-02  1.6583240333658985e-02  1.6860126920773065e-02  1.6951195735697318e-02  1.6855441009080100e-02  1.6574011788473342e-02  1.6110193660905135e-02  1.5469357105351123e-02  1.4658874621075135e-02  1.3688009941866839e-02  1.2567783538002543e-02  1.1310819157592538e-02  9.9311763279633543e-03  8.4441735206517848e-03  6.8662061090197148e-03  5.2145623767213883e-03  3.5072397637176634e-03  1.7627624026840506e-03  0.0000000000000000e+00  0.0000000000000000e+00  1.9663413247297955e-03  3.9108885346076754e-03  5.8127290361579950e-03  7.6513477262511636e-03  9.4068235153165376e-03  1.1060029813851721e-02  1.2592838238495494e-02  1.3988323605800690e-02  1.5230967138942321e-02  1.6306853793076590e-02  1.7203858800022016e-02  1.7911818030743966e-02  1.8422676643211264e-02  1.8730610759680993e-02  1.8832117598862361e-02  1.8726070532759855e-02  1.8413736867663431e-02  1.7898757657936963e-02  1.7187090426267784e-02  1.6286917155263616e-02  1.5208521209607872e-02  1.3964137840504690e-02  1.2567783538002537e-02  1.1035069690285049e-02  9.3830057795404129e-03  7.6297967288747638e-03  5.7946380897603194e-03  3.8975116367710202e-03  1.9589827613146270e-03  0.0000000000000000e+00  0.0000000000000000e+00  2.1406566237659667e-03  4.2577122228378960e-03  6.3283836486481672e-03  8.3303202629876755e-03  1.0241818592963008e-02  1.2042040897343377e-02  1.3711236960164196e-02  1.5230967138942331e-02  1.6584323420025287e-02  1.7756144087316045e-02  1.8733216704594040e-02  1.9504463544351501e-02  2.0061103440246444e-02  2.0396784332905038e-02  2.0507681515372002e-02  2.0392557718241028e-02  2.0052782620320609e-02  1.9492311013162168e-02  1.8717620552128115e-02  1.7737611651746227e-02  1.6563473494870914e-02  1.5208521209607887e-02  1.3688009941866844e-02  1.2018931770420641e-02  1.0219801174385392e-02  8.3104341130707058e-03  6.3117247995763109e-03  4.2454230623927133e-03  2.1339139400396406e-03  0.0000000000000000e+00  0.0000000000000000e+00  2.2915101746292161e-03  4.5578745504859589e-03  6.7746913420800563e-03  8.9180209301051323e-03  1.0964616212365099e-02  1.2892156891777360e-02  1.4679487024884891e-02  1.6306853793076607e-02  1.7756144087316062e-02  1.9011114253169072e-02  2.0057607354931568e-02  2.0883751694939771e-02  2.1480134145429819e-02  2.1839942154799945e-02  2.1959069072362180e-02  2.1836178645100082e-02  2.1472726085196434e-02  2.0872934864424084e-02  2.0043730216546471e-02  1.8994632070489244e-02  1.7737611651746251e-02  1.6286917155263654e-02  1.4658874621075155e-02  1.2871670387197340e-02  1.0945121252181444e-02  8.9004377986879411e-03  6.7599852991322264e-03  4.5470453697719184e-03  2.2855802086510575e-03  0.0000000000000000e+00  0.0000000000000000e+00  2.4172065132438301e-03  4.8080013478887709e-03  7.1466336626557258e-03  9.4078389511013365e-03  1.1567082477529536e-02  1.3600806708837846e-02  1.5486682053435201e-02  1.7203858800022044e-02  1.8733216704594054e-02  2.0057607354931572e-02  2.1162083389107557e-02  2.2034107976689869e-02  2.2663737772931580e-02  2.3043772869244781e-02  2.3169868082008230e-02  2.3040601192931397e-02  2.2657495381365696e-02  2.2024994941568815e-02  2.1150395303680292e-02  2.0043730216546499e-02  1.8717620552128156e-02  1.7187090426267846e-02  1.5469357105351142e-02  1.3583601433214675e-02  1.1550725266837107e-02  9.3931017013686152e-03  7.1343227880288863e-03  4.7989481310416020e-03  2.4122563431407404e-03  0.0000000000000000e+00  0.0000000000000000e+00  2.5163254817096485e-03  5.0052660655241533e-03  7.4400062492717463e-03  9.7942354083648490e-03  1.2042401572179482e-02  1.4159969258971653e-02  1.6123680663710029e-02  1.7911818030743987e-02  1.9504463544351543e-02  2.0883751694939785e-02  2.2034107976689855e-02  2.2942467069397020e-02  2.3598463442730803e-02  2.3994587639646455e-02  2.4126302341868851e-02  2.3992113639015343e-02  2.3593594613837150e-02  2.2935360283430739e-02  2.2024994941568832e-02  2.0872934864424111e-02  1.9492311013162206e-02  1.7898757657937022e-02  1.6110193660905176e-02  1.4146583438975598e-02  1.2029684378893500e-02  9.7827867475526881e-03  7.4304510246690969e-03  4.9982462149652102e-03  2.5124912273441903e-03  0.0000000000000000e+00  0.0000000000000000e+00  2.5877432739122175e-03  5.1474315982000191e-03  7.6514809126593123e-03  1.0072824834917934e-02  1.2385175932909024e-02  1.4563291102935286e-02  1.6583240333658999e-02  1.8422676643211282e-02  2.0061103440246465e-02  2.1480134145429840e-02  2.2663737772931583e-02  2.3598463442730769e-02  2.4273636567285196e-02  2.4681519777120207e-02  2.4817432514308485e-02  2.4679824574333920e-02  2.4270300612745720e-02  2.3593594613837178e-02  2.2657495381365741e-02  2.1472726085196465e-02  2.0052782620320654e-02  1.8413736867663486e-02  1.6574011788473387e-02  1.4554135581885803e-02  1.2376481886544024e-02  1.0065002262074730e-02  7.6449560418286348e-03  5.1426412387713021e-03  2.5851286693174798e-03  0.0000000000000000e+00  0.0000000000000000e+00  2.6306495715880973e-03  5.2328843676035406e-03  7.7786562710985370e-03  1.0240441827197397e-02  1.2591508099599578e-02  1.4806182651155160e-02  1.6860126920773072e-02  1.8730610759681011e-02  2.0396784332905062e-02  2.1839942154799959e-02  2.3043772869244791e-02  2.3994587639646438e-02  2.4681519777120211e-02  2.5096688555548943e-02  2.5235321035486518e-02  2.5095827088381702e-02  2.4679824574333944e-02  2.3992113639015364e-02  2.3040601192931432e-02  2.1836178645100110e-02  2.0392557718241069e-02  1.8726070532759903e-02  1.6855441009080145e-02  1.4801534946740139e-02  1.2587095891438898e-02  1.0236473147985219e-02  7.7753471355896386e-03  5.2304558475859460e-03  2.6293246300065293e-03  0.0000000000000000e+00  0.0000000000000000e+00  2.6445601702077934e-03  5.2606594545333884e-03  7.8200951205614436e-03  1.0295190247779596e-02  1.2659061220992035e-02  1.4885889328365060e-02  1.6951195735697339e-02  1.8832117598862375e-02  2.0507681515372026e-02  2.1959069072362194e-02  2.3169868082008254e-02  2.4126302341868876e-02  2.4817432514308516e-02  2.5235321035486522e-02  2.5375154836975264e-02  2.5235321035486504e-02  2.4817432514308492e-02  2.4126302341868851e-02  2.3169868082008230e-02  2.1959069072362197e-02  2.0507681515372037e-02  1.8832117598862406e-02  1.6951195735697366e-02  1.4885889328365086e-02  1.2659061220992059e-02  1.0295190247779617e-02  7.8200951205614645e-03  5.2606594545333996e-03  2.6445601702078003e-03  0.0000000000000000e+00  0.0000000000000000e+00  2.6293246300065224e-03  5.2304558475859356e-03  7.7753471355896230e-03  1.0236473147985202e-02  1.2587095891438877e-02  1.4801534946740122e-02  1.6855441009080121e-02  1.8726070532759875e-02  2.0392557718241076e-02  2.1836178645100120e-02  2.3040601192931449e-02  2.3992113639015381e-02  2.4679824574333965e-02  2.5095827088381713e-02  2.5235321035486528e-02  2.5096688555548946e-02  2.4681519777120197e-02  2.3994587639646438e-02  2.3043772869244777e-02  2.1839942154799959e-02  2.0396784332905069e-02  1.8730610759681042e-02  1.6860126920773107e-02  1.4806182651155185e-02  1.2591508099599615e-02  1.0240441827197421e-02  7.7786562710985569e-03  5.2328843676035536e-03  2.6306495715881029e-03  0.0000000000000000e+00  0.0000000000000000e+00  2.5851286693174746e-03  5.1426412387712943e-03  7.6449560418286227e-03  1.0065002262074713e-02  1.2376481886544003e-02  1.4554135581885792e-02  1.6574011788473359e-02  1.8413736867663458e-02  2.0052782620320630e-02  2.1472726085196469e-02  2.2657495381365748e-02  2.3593594613837178e-02  2.4270300612745759e-02  2.4679824574333993e-02  2.4817432514308516e-02  2.4681519777120211e-02  2.4273636567285189e-02  2.3598463442730776e-02  2.2663737772931576e-02  2.1480134145429850e-02  2.0061103440246485e-02  1.8422676643211313e-02  1.6583240333659023e-02  1.4563291102935310e-02  1.2385175932909047e-02  1.0072824834917952e-02  7.6514809126593296e-03  5.1474315982000312e-03  2.5877432739122249e-03  0.0000000000000000e+00  0.0000000000000000e+00  2.5124912273441851e-03  4.9982462149652015e-03  7.4304510246690899e-03  9.7827867475526759e-03  1.2029684378893485e-02  1.4146583438975584e-02  1.6110193660905155e-02  1.7898757657936991e-02  1.9492311013162192e-02  2.0872934864424104e-02  2.2024994941568850e-02  2.2935360283430753e-02  2.3593594613837199e-02  2.3992113639015388e-02  2.4126302341868869e-02  2.3994587639646438e-02  2.3598463442730790e-02  2.2942467069397027e-02  2.2034107976689862e-02  2.0883751694939803e-02  1.9504463544351546e-02  1.7911818030744014e-02  1.6123680663710054e-02  1.4159969258971660e-02  1.2042401572179487e-02  9.7942354083648594e-03  7.4400062492717585e-03  5.0052660655241620e-03  2.5163254817096524e-03  0.0000000000000000e+00  0.0000000000000000e+00  2.4122563431407370e-03  4.7989481310415959e-03  7.1343227880288811e-03  9.3931017013686030e-03  1.1550725266837107e-02  1.3583601433214666e-02  1.5469357105351135e-02  1.7187090426267815e-02  1.8717620552128139e-02  2.0043730216546495e-02  2.1150395303680312e-02  2.2024994941568850e-02  2.2657495381365755e-02  2.3040601192931436e-02  2.3169868082008258e-02  2.3043772869244795e-02  2.2663737772931590e-02  2.2034107976689858e-02  2.1162083389107571e-02  2.0057607354931613e-02  1.8733216704594078e-02  1.7203858800022065e-02  1.5486682053435204e-02  1.3600806708837853e-02  1.1567082477529548e-02  9.4078389511013539e-03  7.1466336626557370e-03  4.8080013478887743e-03  2.4172065132438336e-03  0.0000000000000000e+00  0.0000000000000000e+00  2.2855802086510571e-03  4.5470453697719192e-03  6.7599852991322264e-03  8.9004377986879411e-03  1.0945121252181451e-02  1.2871670387197345e-02  1.4658874621075154e-02  1.6286917155263644e-02  1.7737611651746261e-02  1.8994632070489258e-02  2.0043730216546513e-02  2.0872934864424129e-02  2.1472726085196483e-02  2.1836178645100113e-02  2.1959069072362201e-02  2.1839942154799969e-02  2.1480134145429850e-02  2.0883751694939803e-02  2.0057607354931607e-02  1.9011114253169127e-02  1.7756144087316093e-02  1.6306853793076635e-02  1.4679487024884924e-02  1.2892156891777376e-02  1.0964616212365117e-02  8.9180209301051461e-03  6.7746913420800615e-03  4.5578745504859649e-03  2.2915101746292209e-03  0.0000000000000000e+00  0.0000000000000000e+00  2.1339139400396428e-03  4.2454230623927237e-03  6.3117247995763256e-03  8.3104341130707162e-03  1.0219801174385406e-02  1.2018931770420651e-02  1.3688009941866851e-02  1.5208521209607891e-02  1.6563473494870931e-02  1.7737611651746258e-02  1.8717620552128146e-02  1.9492311013162223e-02  2.0052782620320651e-02  2.0392557718241066e-02  2.0507681515372043e-02  2.0396784332905069e-02  2.0061103440246475e-02  1.9504463544351567e-02  1.8733216704594099e-02  1.7756144087316118e-02  1.6584323420025356e-02  1.5230967138942402e-02  1.3711236960164245e-02  1.2042040897343405e-02  1.0241818592963041e-02  8.3303202629876980e-03  6.3283836486481837e-03  4.2577122228379099e-03  2.1406566237659728e-03  0.0000000000000000e+00  0.0000000000000000e+00  1.9589827613146330e-03  3.8975116367710332e-03  5.7946380897603410e-03  7.6297967288747872e-03  9.3830057795404372e-03  1.1035069690285077e-02  1.2567783538002562e-02  1.3964137840504705e-02  1.5208521209607891e-02  1.6286917155263658e-02  1.7187090426267843e-02  1.7898757657937026e-02  1.8413736867663472e-02  1.8726070532759900e-02  1.8832117598862410e-02  1.8730610759681035e-02  1.8422676643211296e-02  1.7911818030744025e-02  1.7203858800022100e-02  1.6306853793076673e-02  1.5230967138942418e-02  1.3988323605800788e-02  1.2592838238495564e-02  1.1060029813851771e-02  9.4068235153165827e-03  7.6513477262511930e-03  5.8127290361580149e-03  3.9108885346076875e-03  1.9663413247298024e-03  0.0000000000000000e+00  0.0000000000000000e+00  1.7627624026840562e-03  3.5072397637176777e-03  5.2145623767214117e-03  6.8662061090197365e-03  8.4441735206518143e-03  9.9311763279633786e-03  1.1310819157592559e-02  1.2567783538002551e-02  1.3688009941866856e-02  1.4658874621075164e-02  1.5469357105351147e-02  1.6110193660905166e-02  1.6574011788473370e-02  1.6855441009080142e-02  1.6951195735697363e-02  1.6860126920773100e-02  1.6583240333659013e-02  1.6123680663710057e-02  1.5486682053435247e-02  1.4679487024884946e-02  1.3711236960164254e-02  1.2592838238495573e-02  1.1336808748291252e-02  9.9571097468802525e-03  8.4689679335434483e-03  6.8886921709842563e-03  5.2334886049252094e-03  3.5212770760073312e-03  1.7705107663190140e-03  0.0000000000000000e+00  0.0000000000000000e+00  1.5474535907500609e-03  3.0789833899288496e-03  4.5779991063528667e-03  6.0282163132451176e-03  7.4138161218133790e-03  8.7196051612458830e-03  9.9311763279633664e-03  1.1035069690285058e-02  1.2018931770420639e-02  1.2871670387197342e-02  1.3583601433214675e-02  1.4146583438975596e-02  1.4554135581885803e-02  1.4801534946740138e-02  1.4885889328365074e-02  1.4806182651155185e-02  1.4563291102935316e-02  1.4159969258971679e-02  1.3600806708837879e-02  1.2892156891777404e-02  1.2042040897343431e-02  1.1060029813851785e-02  9.9571097468802595e-03  8.7455338529661784e-03  7.4386656439928431e-03  6.0508174569582811e-03  4.5970874283912675e-03  3.0931976614170698e-03  1.5553356091480564e-03  0.0000000000000000e+00  0.0000000000000000e+00  1.3154555799215742e-03  2.6175126081498805e-03  3.8920341914712975e-03  5.1251490704833924e-03  6.3033874840290587e-03  7.4138161218133746e-03  8.4441735206517918e-03  9.3830057795404199e-03  1.0219801174385387e-02  1.0945121252181446e-02  1.1550725266837095e-02  1.2029684378893488e-02  1.2376481886544020e-02  1.2587095891438874e-02  1.2659061220992040e-02  1.2591508099599623e-02  1.2385175932909054e-02  1.2042401572179510e-02  1.1567082477529571e-02  1.0964616212365146e-02  1.0241818592963067e-02  9.4068235153166018e-03  8.4689679335434604e-03  7.4386656439928509e-03  6.3272734422354241e-03  5.1469529104781597e-03  3.9105306511371838e-03  2.6313593502705250e-03  1.3231818014268759e-03  0.0000000000000000e+00  0.0000000000000000e+00  1.0693398316541792e-03  2.1279381934973200e-03  3.1642569247566222e-03  4.1669853988130969e-03  5.1251490704833898e-03  6.0282163132451116e-03  6.8662061090197200e-03  7.6297967288747673e-03  8.3104341130707041e-03  8.9004377986879359e-03  9.3931017013686047e-03  9.7827867475526846e-03  1.0065002262074739e-02  1.0236473147985214e-02  1.0295190247779615e-02  1.0240441827197423e-02  1.0072824834917955e-02  9.7942354083648750e-03  9.4078389511013678e-03  8.9180209301051687e-03  8.3303202629877154e-03  7.6513477262512104e-03  6.8886921709842685e