<?xml version="1.0"?>
<VTKFile type="UnstructuredGrid"  version="0.1"  >
<UnstructuredGrid>
<Piece  NumberOfPoints="961" NumberOfCells="1800">
<Points>
<DataArray  type="Float64"  NumberOfComponents="3"  format="ascii">-2 -2 0  -1.866666666666667 -2 0  -1.733333333333333 -2 0  -1.6 -2 0  -1.466666666666667 -2 0  -1.333333333333333 -2 0  -1.2 -2 0  -1.066666666666667 -2 0  -0.9333333333333333 -2 0  -0.8 -2 0  -0.6666666666666667 -2 0  -0.5333333333333334 -2 0  -0.3999999999999999 -2 0  -0.2666666666666666 -2 0  -0.1333333333333333 -2 0  0 -2 0  0.1333333333333333 -2 0  0.2666666666666666 -2 0  0.3999999999999999 -2 0  0.5333333333333332 -2 0  0.6666666666666665 -2 0  0.7999999999999998 -2 0  0.9333333333333331 -2 0  1.066666666666667 -2 0  1.2 -2 0  1.333333333333333 -2 0  1.466666666666667 -2 0  1.6 -2 0  1.733333333333333 -2 0  1.866666666666667 -2 0  2 -2 0  -2 -1.866666666666667 0  -1.866666666666667 -1.866666666666667 0  -1.733333333333333 -1.866666666666667 0  -1.6 -1.866666666666667 0  -1.466666666666667 -1.866666666666667 0  -1.333333333333333 -1.866666666666667 0  -1.2 -1.866666666666667 0  -1.066666666666667 -1.866666666666667 0  -0.9333333333333333 -1.866666666666667 0  -0.8 -1.866666666666667 0  -0.6666666666666667 -1.866666666666667 0  -0.5333333333333334 -1.866666666666667 0  -0.3999999999999999 -1.866666666666667 0  -0.2666666666666666 -1.866666666666667 0  -0.1333333333333333 -1.866666666666667 0  0 -1.866666666666667 0  0.1333333333333333 -1.866666666666667 0  0.2666666666666666 -1.866666666666667 0  0.3999999999999999 -1.866666666666667 0  0.5333333333333332 -1.866666666666667 0  0.6666666666666665 -1.866666666666667 0  0.7999999999999998 -1.866666666666667 0  0.9333333333333331 -1.866666666666667 0  1.066666666666667 -1.866666666666667 0  1.2 -1.866666666666667 0  1.333333333333333 -1.866666666666667 0  1.466666666666667 -1.866666666666667 0  1.6 -1.866666666666667 0  1.733333333333333 -1.866666666666667 0  1.866666666666667 -1.866666666666667 0  2 -1.866666666666667 0  -2 -1.733333333333333 0  -1.866666666666667 -1.733333333333333 0  -1.733333333333333 -1.733333333333333 0  -1.6 -1.733333333333333 0  -1.466666666666667 -1.733333333333333 0  -1.333333333333333 -1.733333333333333 0  -1.2 -1.733333333333333 0  -1.066666666666667 -1.733333333333333 0  -0.9333333333333333 -1.733333333333333 0  -0.8 -1.733333333333333 0  -0.6666666666666667 -1.733333333333333 0  -0.5333333333333334 -1.733333333333333 0  -0.3999999999999999 -1.733333333333333 0  -0.2666666666666666 -1.733333333333333 0  -0.1333333333333333 -1.733333333333333 0  0 -1.733333333333333 0  0.1333333333333333 -1.733333333333333 0  0.2666666666666666 -1.733333333333333 0  0.3999999999999999 -1.733333333333333 0  0.5333333333333332 -1.733333333333333 0  0.6666666666666665 -1.733333333333333 0  0.7999999999999998 -1.733333333333333 0  0.9333333333333331 -1.733333333333333 0  1.066666666666667 -1.733333333333333 0  1.2 -1.733333333333333 0  1.333333333333333 -1.733333333333333 0  1.466666666666667 -1.733333333333333 0  1.6 -1.733333333333333 0  1.733333333333333 -1.733333333333333 0  1.866666666666667 -1.733333333333333 0  2 -1.733333333333333 0  -2 -1.6 0  -1.866666666666667 -1.6 0  -1.733333333333333 -1.6 0  -1.6 -1.6 0  -1.466666666666667 -1.6 0  -1.333333333333333 -1.6 0  -1.2 -1.6 0  -1.066666666666667 -1.6 0  -0.9333333333333333 -1.6 0  -0.8 -1.6 0  -0.6666666666666667 -1.6 0  -0.5333333333333334 -1.6 0  -0.3999999999999999 -1.6 0  -0.2666666666666666 -1.6 0  -0.1333333333333333 -1.6 0  0 -1.6 0  0.1333333333333333 -1.6 0  0.2666666666666666 -1.6 0  0.3999999999999999 -1.6 0  0.5333333333333332 -1.6 0  0.6666666666666665 -1.6 0  0.7999999999999998 -1.6 0  0.9333333333333331 -1.6 0  1.066666666666667 -1.6 0  1.2 -1.6 0  1.333333333333333 -1.6 0  1.466666666666667 -1.6 0  1.6 -1.6 0  1.733333333333333 -1.6 0  1.866666666666667 -1.6 0  2 -1.6 0  -2 -1.466666666666667 0  -1.866666666666667 -1.466666666666667 0  -1.733333333333333 -1.466666666666667 0  -1.6 -1.466666666666667 0  -1.466666666666667 -1.466666666666667 0  -1.333333333333333 -1.466666666666667 0  -1.2 -1.466666666666667 0  -1.066666666666667 -1.466666666666667 0  -0.9333333333333333 -1.466666666666667 0  -0.8 -1.466666666666667 0  -0.6666666666666667 -1.466666666666667 0  -0.5333333333333334 -1.466666666666667 0  -0.3999999999999999 -1.466666666666667 0  -0.2666666666666666 -1.466666666666667 0  -0.1333333333333333 -1.466666666666667 0  0 -1.466666666666667 0  0.1333333333333333 -1.466666666666667 0  0.2666666666666666 -1.466666666666667 0  0.3999999999999999 -1.466666666666667 0  0.5333333333333332 -1.466666666666667 0  0.6666666666666665 -1.466666666666667 0  0.7999999999999998 -1.466666666666667 0  0.9333333333333331 -1.466666666666667 0  1.066666666666667 -1.466666666666667 0  1.2 -1.466666666666667 0  1.333333333333333 -1.466666666666667 0  1.466666666666667 -1.466666666666667 0  1.6 -1.466666666666667 0  1.733333333333333 -1.466666666666667 0  1.866666666666667 -1.466666666666667 0  2 -1.466666666666667 0  -2 -1.333333333333333 0  -1.866666666666667 -1.333333333333333 0  -1.733333333333333 -1.333333333333333 0  -1.6 -1.333333333333333 0  -1.466666666666667 -1.333333333333333 0  -1.333333333333333 -1.333333333333333 0  -1.2 -1.333333333333333 0  -1.066666666666667 -1.333333333333333 0  -0.9333333333333333 -1.333333333333333 0  -0.8 -1.333333333333333 0  -0.6666666666666667 -1.333333333333333 0  -0.5333333333333334 -1.333333333333333 0  -0.3999999999999999 -1.333333333333333 0  -0.2666666666666666 -1.333333333333333 0  -0.1333333333333333 -1.333333333333333 0  0 -1.333333333333333 0  0.1333333333333333 -1.333333333333333 0  0.2666666666666666 -1.333333333333333 0  0.3999999999999999 -1.333333333333333 0  0.5333333333333332 -1.333333333333333 0  0.6666666666666665 -1.333333333333333 0  0.7999999999999998 -1.333333333333333 0  0.9333333333333331 -1.333333333333333 0  1.066666666666667 -1.333333333333333 0  1.2 -1.333333333333333 0  1.333333333333333 -1.333333333333333 0  1.466666666666667 -1.333333333333333 0  1.6 -1.333333333333333 0  1.733333333333333 -1.333333333333333 0  1.866666666666667 -1.333333333333333 0  2 -1.333333333333333 0  -2 -1.2 0  -1.866666666666667 -1.2 0  -1.733333333333333 -1.2 0  -1.6 -1.2 0  -1.466666666666667 -1.2 0  -1.333333333333333 -1.2 0  -1.2 -1.2 0  -1.066666666666667 -1.2 0  -0.9333333333333333 -1.2 0  -0.8 -1.2 0  -0.6666666666666667 -1.2 0  -0.5333333333333334 -1.2 0  -0.3999999999999999 -1.2 0  -0.2666666666666666 -1.2 0  -0.1333333333333333 -1.2 0  0 -1.2 0  0.1333333333333333 -1.2 0  0.2666666666666666 -1.2 0  0.3999999999999999 -1.2 0  0.5333333333333332 -1.2 0  0.6666666666666665 -1.2 0  0.7999999999999998 -1.2 0  0.9333333333333331 -1.2 0  1.066666666666667 -1.2 0  1.2 -1.2 0  1.333333333333333 -1.2 0  1.466666666666667 -1.2 0  1.6 -1.2 0  1.733333333333333 -1.2 0  1.866666666666667 -1.2 0  2 -1.2 0  -2 -1.066666666666667 0  -1.866666666666667 -1.066666666666667 0  -1.733333333333333 -1.066666666666667 0  -1.6 -1.066666666666667 0  -1.466666666666667 -1.066666666666667 0  -1.333333333333333 -1.066666666666667 0  -1.2 -1.066666666666667 0  -1.066666666666667 -1.066666666666667 0  -0.9333333333333333 -1.066666666666667 0  -0.8 -1.066666666666667 0  -0.6666666666666667 -1.066666666666667 0  -0.5333333333333334 -1.066666666666667 0  -0.3999999999999999 -1.066666666666667 0  -0.2666666666666666 -1.066666666666667 0  -0.1333333333333333 -1.066666666666667 0  0 -1.066666666666667 0  0.1333333333333333 -1.066666666666667 0  0.2666666666666666 -1.066666666666667 0  0.3999999999999999 -1.066666666666667 0  0.5333333333333332 -1.066666666666667 0  0.6666666666666665 -1.066666666666667 0  0.7999999999999998 -1.066666666666667 0  0.9333333333333331 -1.066666666666667 0  1.066666666666667 -1.066666666666667 0  1.2 -1.066666666666667 0  1.333333333333333 -1.066666666666667 0  1.466666666666667 -1.066666666666667 0  1.6 -1.066666666666667 0  1.733333333333333 -1.066666666666667 0  1.866666666666667 -1.066666666666667 0  2 -1.066666666666667 0  -2 -0.9333333333333333 0  -1.866666666666667 -0.9333333333333333 0  -1.733333333333333 -0.9333333333333333 0  -1.6 -0.9333333333333333 0  -1.466666666666667 -0.9333333333333333 0  -1.333333333333333 -0.9333333333333333 0  -1.2 -0.9333333333333333 0  -1.066666666666667 -0.9333333333333333 0  -0.9333333333333333 -0.9333333333333333 0  -0.8 -0.9333333333333333 0  -0.6666666666666667 -0.9333333333333333 0  -0.5333333333333334 -0.9333333333333333 0  -0.3999999999999999 -0.9333333333333333 0  -0.2666666666666666 -0.9333333333333333 0  -0.1333333333333333 -0.9333333333333333 0  0 -0.9333333333333333 0  0.1333333333333333 -0.9333333333333333 0  0.2666666666666666 -0.9333333333333333 0  0.3999999999999999 -0.9333333333333333 0  0.5333333333333332 -0.9333333333333333 0  0.6666666666666665 -0.9333333333333333 0  0.7999999999999998 -0.9333333333333333 0  0.9333333333333331 -0.9333333333333333 0  1.066666666666667 -0.9333333333333333 0  1.2 -0.9333333333333333 0  1.333333333333333 -0.9333333333333333 0  1.466666666666667 -0.9333333333333333 0  1.6 -0.9333333333333333 0  1.733333333333333 -0.9333333333333333 0  1.866666666666667 -0.9333333333333333 0  2 -0.9333333333333333 0  -2 -0.8 0  -1.866666666666667 -0.8 0  -1.733333333333333 -0.8 0  -1.6 -0.8 0  -1.466666666666667 -0.8 0  -1.333333333333333 -0.8 0  -1.2 -0.8 0  -1.066666666666667 -0.8 0  -0.9333333333333333 -0.8 0  -0.8 -0.8 0  -0.6666666666666667 -0.8 0  -0.5333333333333334 -0.8 0  -0.3999999999999999 -0.8 0  -0.2666666666666666 -0.8 0  -0.1333333333333333 -0.8 0  0 -0.8 0  0.1333333333333333 -0.8 0  0.2666666666666666 -0.8 0  0.3999999999999999 -0.8 0  0.5333333333333332 -0.8 0  0.6666666666666665 -0.8 0  0.7999999999999998 -0.8 0  0.9333333333333331 -0.8 0  1.066666666666667 -0.8 0  1.2 -0.8 0  1.333333333333333 -0.8 0  1.466666666666667 -0.8 0  1.6 -0.8 0  1.733333333333333 -0.8 0  1.866666666666667 -0.8 0  2 -0.8 0  -2 -0.6666666666666667 0  -1.866666666666667 -0.
[...]
<PointData  Scalars="f_12"> 
<DataArray  type="Float64"  Name="f_12"  format="ascii">0.0000000000000000e+00  0.0000000000000000e+00  0.0000000000000000e+00  0.0000000000000000e+00  0.0000000000000000e+00  0.0000000000000000e+00  0.0000000000000000e+00  0.0000000000000000e+00  0.0000000000000000e+00  0.0000000000000000e+00  0.0000000000000000e+00  0.0000000000000000e+00  0.0000000000000000e+00  0.0000000000000000e+00  0.0000000000000000e+00  0.0000000000000000e+00  0.0000000000000000e+00  0.0000000000000000e+00  0.0000000000000000e+00  0.0000000000000000e+00  0.0000000000000000e+00  0.0000000000000000e+00  0.0000000000000000e+00  0.0000000000000000e+00  0.0000000000000000e+00  0.0000000000000000e+00  0.0000000000000000e+00  0.0000000000000000e+00  0.0000000000000000e+00  0.0000000000000000e+00  0.0000000000000000e+00  0.0000000000000000e+00  5.1855634223059650e-04  1.0322882196337178e-03  1.5372193970432952e-03  2.0290251732598586e-03  2.5030619328743407e-03  2.9543838553880535e-03  3.3777905377427551e-03  3.7679186154787837e-03  4.1193776355346844e-03  4.4269230098565333e-03  4.6856538244213304e-03  4.8912199695162195e-03  5.0400214611044528e-03  5.1293829760474443e-03  5.1576884695208420e-03  5.1244640856547520e-03  5.0304020782566752e-03  4.8773236814386410e-03  4.6680842945974145e-03  4.4064294392463848e-03  4.0968142100909549e-03  3.7442019707882679e-03  3.3538595584890673e-03  2.9311661472749373e-03  2.4814512568360945e-03  2.0098744878774958e-03  1.5213560805202593e-03  1.0205647881539257e-03  5.1197181726642452e-04  0.0000000000000000e+00  0.0000000000000000e+00  1.0322882196337180e-03  2.0553657810678909e-03  3.0610487028157073e-03  4.0406447595397171e-03  4.9848819193533539e-03  5.8839043453471828e-03  6.7273551196420757e-03  7.5045540385227051e-03  8.2047660507224753e-03  8.8175445921041453e-03  9.3331250068118873e-03  9.7428369575586395e-03  1.0039501635001072e-02  1.0217779895156790e-02  1.0274441120577722e-02  1.0208529244521709e-02  1.0021411340567174e-02  9.7167045784944412e-03  9.3000881555422906e-03  8.7790169678417795e-03  8.1623622986882298e-03  7.4600108499070106e-03  6.6824564686470828e-03  5.8404186806070282e-03  4.9445187395789217e-03  4.0050378144351100e-03  3.0317739958943602e-03  2.0340061865460261e-03  1.0205647881539263e-03  0.0000000000000000e+00  0.0000000000000000e+00  1.5372193970432950e-03  3.0610487028157078e-03  4.5591284960633492e-03  6.0184368945712672e-03  7.4251329410839869e-03  8.7645257959264086e-03  1.0021186180455936e-02  1.1179205349055175e-02  1.2222591801487038e-02  1.3135780968809341e-02  1.3904220389753683e-02  1.4514983832857762e-02  1.4957363316272950e-02  1.5223388473569984e-02  1.5308228165763868e-02  1.5210439118052442e-02  1.4932039697259982e-02  1.4478402430918469e-02  1.3857974976176739e-02  1.3081854392830043e-02  1.2163252279592649e-02  1.1116897370229551e-02  9.9584267079232212e-03  8.7038161353878950e-03  7.3688956648055191e-03  5.9689859127218005e-03  4.5186791733937814e-03  3.0317739958943615e-03  1.5213560805202603e-03  0.0000000000000000e+00  0.0000000000000000e+00  2.0290251732598581e-03  4.0406447595397162e-03  6.0184368945712663e-03  7.9451531880817081e-03  9.8024941186964712e-03  1.1571054482965281e-02  1.3230461565583995e-02  1.4759711466255529e-02  1.6137689385190227e-02  1.7343840442697350e-02  1.8358941180270247e-02  1.9165910103701094e-02  1.9750589746832223e-02  2.0102433394834446e-02  2.0215036783544527e-02  2.0086468107809442e-02  1.9719367261894015e-02  1.9120805673408795e-02  1.8301919367791162e-02  1.7277347921478833e-02  1.6064528769986729e-02  1.4682908305331711e-02  1.3153137192724020e-02  1.1496316828124667e-02  9.7333569585139109e-03  7.8844919180604909e-03  5.9689859127218040e-03  4.0050378144351126e-03  2.0098744878774971e-03  0.0000000000000000e+00  0.0000000000000000e+00  2.5030619328743411e-03  4.9848819193533522e-03  7.4251329410839791e-03  9.8024941186964712e-03  1.2094367062760446e-02  1.4276800953489193e-02  1.6324656648105673e-02  1.8212016880700628e-02  1.9912824851020618e-02  2.1401709741259115e-02  2.2654937497187961e-02  2.3651410711283450e-02  2.4373634191941752e-02  2.4808563592566564e-02  2.4948263292966885e-02  2.4790315749810176e-02  2.4337946212041096e-02  2.3599851908477784e-02  2.2589751079126794e-02  2.1325691956901309e-02  1.9829182590809295e-02  1.8124217219701200e-02  1.6236282347923375e-02  1.4191425071064119e-02  1.2015457674251839e-02  9.7333569585139213e-03  7.3688956648055269e-03  4.9445187395789243e-03  2.4814512568360953e-03  0.0000000000000000e+00  0.0000000000000000e+00  2.9543838553880548e-03  5.8839043453471837e-03  8.7645257959264155e-03  1.1571054482965287e-02  1.4276800953489184e-02  1.6853486995976580e-02  1.9271434687412624e-02  2.1500046592920291e-02  2.3508556488339920e-02  2.5267001748932250e-02  2.6747344629909138e-02  2.7924652506038029e-02  2.8778238526602530e-02  2.9292665017612324e-02  2.9458522315880645e-02  2.9272914587311287e-02  2.8739609742311319e-02  2.7868840314499523e-02  2.6676773190303274e-02  2.5184695316586226e-02  2.3417987107093707e-02  2.1404972828452183e-02  1.9175746098553118e-02  1.6761067973405194e-02  1.4191425071064126e-02  1.1496316828124674e-02  8.7038161353878950e-03  5.8404186806070299e-03  2.9311661472749390e-03  0.0000000000000000e+00  0.0000000000000000e+00  3.3777905377427577e-03  6.7273551196420818e-03  1.0021186180455950e-02  1.3230461565584009e-02  1.6324656648105673e-02  1.9271434687412631e-02  2.2036859261573540e-02  2.4585939838347795e-02  2.6883487308629390e-02  2.8895223858329825e-02  3.0589064095168841e-02  3.1936464638113539e-02  3.2913729446210113e-02  3.3503159081321010e-02  3.3693943860475042e-02  3.3482722366398272e-02  3.2873755973689689e-02  3.1878704059602650e-02  3.0516020060277354e-02  2.8810022015805476e-02  2.6789719439957810e-02  2.4487498513698892e-02  2.1937777811282859e-02  1.9175746098553138e-02  1.6236282347923382e-02  1.3153137192724021e-02  9.9584267079232125e-03  6.6824564686470802e-03  3.3538595584890673e-03  0.0000000000000000e+00  0.0000000000000000e+00  3.7679186154787906e-03  7.5045540385227207e-03  1.1179205349055206e-02  1.4759711466255560e-02  1.8212016880700635e-02  2.1500046592920305e-02  2.4585939838347795e-02  2.7430655522977257e-02  2.9994923954618471e-02  3.2240483126789406e-02  3.4131507063244540e-02  3.5636111634633261e-02  3.6727812071774675e-02  3.7386807319780113e-02  3.7600979404926176e-02  3.7366519912763629e-02  3.6688128194032318e-02  3.5578763846782858e-02  3.4058975641810811e-02  3.2155866468440292e-02  2.9901785412395177e-02  2.7332860671824898e-02  2.4487498513698882e-02  2.1404972828452187e-02  1.8124217219701210e-02  1.4682908305331708e-02  1.1116897370229533e-02  7.4600108499070046e-03  3.7442019707882670e-03  0.0000000000000000e+00  0.0000000000000000e+00  4.1193776355346922e-03  8.2047660507224927e-03  1.2222591801487073e-02  1.6137689385190290e-02  1.9912824851020666e-02  2.3508556488339952e-02  2.6883487308629415e-02  2.9994923954618502e-02  3.2799914685529521e-02  3.5256599274273527e-02  3.7325769924462765e-02  3.8972518037945734e-02  4.0167829309726621e-02  4.0889990513169445e-02  4.1125685475453345e-02  4.0870683819902894e-02  4.0130061554299261e-02  3.8917934044150317e-02  3.7256725254156929e-02  3.5176038107624936e-02  3.2711225386503014e-02  2.9901785412395184e-02  2.6789719439957813e-02  2.3417987107093710e-02  1.9829182590809308e-02  1.6064528769986732e-02  1.2163252279592652e-02  8.1623622986882350e-03  4.0968142100909592e-03  0.0000000000000000e+00  0.0000000000000000e+00  4.4269230098565437e-03  8.8175445921041627e-03  1.3135780968809380e-02  1.7343840442697402e-02  2.1401709741259191e-02  2.5267001748932295e-02  2.8895223858329849e-02  3.2240483126789433e-02  3.5256599274273534e-02  3.7898553699672932e-02  4.0124166343426741e-02  4.1895866011857588e-02  4.3182406369764711e-02  4.3960380628868888e-02  4.4215403035079037e-02  4.3942853189986149e-02  4.3148117340078507e-02  4.1846305309935820e-02  4.0061468367770636e-02  3.7825387409519490e-02  3.5176038107624964e-02  3.2155866468440347e-02  2.8810022015805497e-02  2.5184695316586247e-02  2.1325691956901326e-02  1.7277347921478857e-02  1.3081854392830059e-02  8.7790169678417899e-03  4.4064294392463944e-03  0.0000000000000000e+00  0.0000000000000000e+00  4.6856538244213382e-03  9.3331250068119063e-03  1.3904220389753710e-02  1.8358941180270292e-02  2.2654937497188020e-02  2.6747344629909190e-02  3.0589064095168862e-02  3.4131507063244561e-02  3.7325769924462765e-02  4.0124166343426741e-02  4.2482001577372551e-02  4.4359446966083217e-02  4.5723358169107831e-02  4.6548881455073847e-02  4.6820708177971467e-02  4.6533867041180871e-02  4.5693984014174183e-02  4.4316986897963727e-02  4.2428280904530803e-02  4.0061468367770706e-02  3.7256725254157040e-02  3.4058975641810943e-02  3.0516020060277375e-02  2.6676773190303329e-02  2.2589751079126818e-02  1.8301919367791200e-02  1.3857974976176765e-02  9.3000881555423080e-03  4.6680842945974249e-03  0.0000000000000000e+00  0.0000000000000000e+00  4.8912199695162221e-03  9.7428369575586447e-03  1.4514983832857778e-02  1.9165910103701122e-02  2.3651410711283495e-02  2.7924652506038063e-02  3.1936464638113567e-02  3.5636111634633288e-02  3.8972518037945734e-02  4.1895866011857616e-02  4.4359446966083210e-02  4.6321619032188545e-02  4.7747707120221423e-02  4.8611682899586964e-02  4.8897478438615923e-02  4.8599817890111141e-02  4.7724493575144668e-02  4.6288061998610942e-02  4.4316986897963699e-02  4.1846305309935883e-02  3.8917934044150421e-02  3.5578763846782983e-02  3.1878704059602726e-02  2.7868840314499582e-02  2.3599851908477847e-02  1.9120805673408833e-02  1.4478402430918491e-02  9.7167045784944638e-03  4.8773236814386505e-03  0.0000000000000000e+00  0.0000000000000000e+00  5.0400214611044528e-03  1.0039501635001077e-02  1.4957363316272950e-02  1.9750589746832230e-02  2.4373634191941763e-02  2.8778238526602558e-02  3.2913729446210127e-02  3.6727812071774717e-02  4.0167829309726628e-02  4.3182406369764718e-02  4.5723358169107858e-02  4.7747707120221333e-02  4.9219643088996630e-02  5.0112257792073386e-02  5.0408902652305694e-02  5.0104050605569432e-02  4.9203585523680080e-02  4.7724493575144716e-02  4.5693984014174266e-02  4.3148117340078576e-02  4.0130061554299365e-02  3.6688128194032443e-02  3.2873755973689786e-02  2.8739609742311385e-02  2.4337946212041158e-02  1.9719367261894053e-02  1.4932039697260006e-02  1.0021411340567197e-02  5.0304020782566900e-03  0.0000000000000000e+00  0.0000000000000000e+00  5.1293829760474504e-03  1.0217779895156792e-02  1.5223388473569974e-02  2.0102433394834442e-02  2.4808563592566564e-02  2.9292665017612358e-02  3.3503159081321059e-02  3.7386807319780155e-02  4.0889990513169459e-02  4.3960380628868916e-02  4.6548881455073875e-02  4.8611682899586998e-02  5.0112257792073414e-02  5.1023130364209239e-02  5.1327262486514355e-02  5.1018935657702942e-02  5.0104050605569481e-02  4.8599817890111197e-02  4.6533867041180954e-02  4.3942853189986218e-02  4.0870683819902991e-02  3.7366519912763733e-02  3.3482722366398397e-02  2.9272914587311367e-02  2.4790315749810228e-02  2.0086468107809494e-02  1.5210439118052470e-02  1.0208529244521735e-02  5.1244640856547667e-03  0.0000000000000000e+00  0.0000000000000000e+00  5.1576884695208498e-03  1.0274441120577738e-02  1.5308228165763871e-02  2.0215036783544527e-02  2.4948263292966896e-02  2.9458522315880691e-02  3.3693943860475070e-02  3.7600979404926224e-02  4.1125685475453415e-02  4.4215403035079093e-02  4.6820708177971536e-02  4.8897478438615971e-02  5.0408902652305729e-02  5.1327262486514355e-02  5.1635330615577062e-02  5.1327262486514355e-02  5.0408902652305701e-02  4.8897478438615936e-02  4.6820708177971494e-02  4.4215403035079093e-02  4.1125685475453415e-02  3.7600979404926273e-02  3.3693943860475133e-02  2.9458522315880725e-02  2.4948263292966948e-02  2.0215036783544596e-02  1.5308228165763906e-02  1.0274441120577755e-02  5.1576884695208602e-03  0.0000000000000000e+00  0.0000000000000000e+00  5.1244640856547580e-03  1.0208529244521718e-02  1.5210439118052451e-02  2.0086468107809462e-02  2.4790315749810207e-02  2.9272914587311339e-02  3.3482722366398321e-02  3.7366519912763692e-02  4.0870683819903005e-02  4.3942853189986246e-02  4.6533867041181023e-02  4.8599817890111252e-02  5.0104050605569522e-02  5.1018935657702977e-02  5.1327262486514369e-02  5.1023130364209274e-02  5.0112257792073414e-02  4.8611682899586971e-02  4.6548881455073826e-02  4.3960380628868916e-02  4.0889990513169494e-02  3.7386807319780203e-02  3.3503159081321107e-02  2.9292665017612397e-02  2.4808563592566623e-02  2.0102433394834494e-02  1.5223388473570017e-02  1.0217779895156818e-02  5.1293829760474616e-03  0.0000000000000000e+00  0.0000000000000000e+00  5.0304020782566830e-03  1.0021411340567188e-02  1.4932039697259996e-02  1.9719367261894043e-02  2.4337946212041155e-02  2.8739609742311389e-02  3.2873755973689738e-02  3.6688128194032381e-02  4.0130061554299344e-02  4.3148117340078604e-02  4.5693984014174363e-02  4.7724493575144800e-02  4.9203585523680170e-02  5.0104050605569557e-02  5.0408902652305736e-02  5.0112257792073386e-02  4.9219643088996644e-02  4.7747707120221354e-02  4.5723358169107817e-02  4.3182406369764732e-02  4.0167829309726677e-02  3.6727812071774772e-02  3.2913729446210176e-02  2.8778238526602582e-02  2.4373634191941804e-02  1.9750589746832258e-02  1.4957363316272971e-02  1.0039501635001094e-02  5.0400214611044667e-03  0.0000000000000000e+00  0.0000000000000000e+00  4.8773236814386488e-03  9.7167045784944586e-03  1.4478402430918495e-02  1.9120805673408826e-02  2.3599851908477843e-02  2.7868840314499585e-02  3.1878704059602699e-02  3.5578763846782928e-02  3.8917934044150414e-02  4.1846305309935911e-02  4.4316986897963803e-02  4.6288061998611039e-02  4.7724493575144793e-02  4.8599817890111238e-02  4.8897478438615971e-02  4.8611682899586992e-02  4.7747707120221368e-02  4.6321619032188538e-02  4.4359446966083217e-02  4.1895866011857630e-02  3.8972518037945755e-02  3.5636111634633316e-02  3.1936464638113594e-02  2.7924652506038070e-02  2.3651410711283495e-02  1.9165910103701136e-02  1.4514983832857794e-02  9.7428369575586638e-03  4.8912199695162325e-03  0.0000000000000000e+00  0.0000000000000000e+00  4.6680842945974249e-03  9.3000881555423114e-03  1.3857974976176763e-02  1.8301919367791197e-02  2.2589751079126832e-02  2.6676773190303340e-02  3.0516020060277364e-02  3.4058975641810894e-02  3.7256725254157012e-02  4.0061468367770706e-02  4.2428280904530893e-02  4.4316986897963789e-02  4.5693984014174308e-02  4.6533867041180968e-02  4.6820708177971529e-02  4.6548881455073875e-02  4.5723358169107838e-02  4.4359446966083196e-02  4.2482001577372565e-02  4.0124166343426783e-02  3.7325769924462807e-02  3.4131507063244609e-02  3.0589064095168862e-02  2.6747344629909183e-02  2.2654937497187996e-02  1.8358941180270292e-02  1.3904220389753707e-02  9.3331250068119150e-03  4.6856538244213460e-03  0.0000000000000000e+00  0.0000000000000000e+00  4.4064294392463978e-03  8.7790169678418021e-03  1.3081854392830074e-02  1.7277347921478878e-02  2.1325691956901354e-02  2.5184695316586271e-02  2.8810022015805493e-02  3.2155866468440333e-02  3.5176038107624964e-02  3.7825387409519538e-02  4.0061468367770726e-02  4.1846305309935924e-02  4.3148117340078618e-02  4.3942853189986232e-02  4.4215403035079100e-02  4.3960380628868923e-02  4.3182406369764746e-02  4.1895866011857637e-02  4.0124166343426769e-02  3.7898553699672981e-02  3.5256599274273603e-02  3.2240483126789482e-02  2.8895223858329894e-02  2.5267001748932316e-02  2.1401709741259201e-02  1.7343840442697416e-02  1.3135780968809380e-02  8.8175445921041748e-03  4.4269230098565567e-03  0.0000000000000000e+00  0.0000000000000000e+00  4.0968142100909731e-03  8.1623622986882541e-03  1.2163252279592692e-02  1.6064528769986777e-02  1.9829182590809350e-02  2.3417987107093745e-02  2.6789719439957838e-02  2.9901785412395208e-02  3.2711225386503034e-02  3.5176038107625006e-02  3.7256725254157040e-02  3.8917934044150455e-02  4.0130061554299379e-02  4.0870683819903011e-02  4.1125685475453394e-02  4.0889990513169459e-02  4.0167829309726635e-02  3.8972518037945797e-02  3.7325769924462862e-02  3.5256599274273645e-02  3.2799914685529653e-02  2.9994923954618610e-02  2.6883487308629495e-02  2.3508556488340000e-02  1.9912824851020718e-02  1.6137689385190321e-02  1.2222591801487093e-02  8.2047660507225135e-03  4.1193776355347069e-03  0.0000000000000000e+00  0.0000000000000000e+00  3.7442019707882804e-03  7.4600108499070358e-03  1.1116897370229594e-02  1.4682908305331758e-02  1.8124217219701259e-02  2.1404972828452239e-02  2.4487498513698937e-02  2.7332860671824926e-02  2.9901785412395226e-02  3.2155866468440375e-02  3.4058975641810950e-02  3.5578763846782990e-02  3.6688128194032450e-02  3.7366519912763740e-02  3.7600979404926287e-02  3.7386807319780190e-02  3.6727812071774724e-02  3.5636111634633337e-02  3.4131507063244665e-02  3.2240483126789558e-02  2.9994923954618675e-02  2.7430655522977406e-02  2.4585939838347927e-02  2.1500046592920388e-02  1.8212016880700729e-02  1.4759711466255612e-02  1.1179205349055239e-02  7.5045540385227467e-03  3.7679186154788058e-03  0.0000000000000000e+00  0.0000000000000000e+00  3.3538595584890777e-03  6.6824564686471036e-03  9.9584267079232524e-03  1.3153137192724058e-02  1.6236282347923434e-02  1.9175746098553180e-02  2.1937777811282904e-02  2.4487498513698910e-02  2.6789719439957838e-02  2.8810022015805514e-02  3.0516020060277392e-02  3.1878704059602705e-02  3.2873755973689772e-02  3.3482722366398356e-02  3.3693943860475091e-02  3.3503159081321079e-02  3.2913729446210162e-02  3.1936464638113615e-02  3.0589064095168948e-02  2.8895223858329964e-02  2.6883487308629519e-02  2.4585939838347937e-02  2.2036859261573657e-02  1.9271434687412711e-02  1.6324656648105743e-02  1.3230461565584051e-02  1.0021186180455974e-02  6.7273551196421026e-03  3.3777905377427703e-03  0.0000000000000000e+00  0.0000000000000000e+00  2.9311661472749460e-03  5.8404186806070447e-03  8.7038161353879227e-03  1.1496316828124704e-02  1.4191425071064166e-02  1.6761067973405239e-02  1.9175746098553159e-02  2.1404972828452197e-02  2.3417987107093724e-02  2.5184695316586254e-02  2.6676773190303336e-02  2.7868840314499582e-02  2.8739609742311385e-02  2.9272914587311342e-02  2.9458522315880694e-02  2.9292665017612379e-02  2.8778238526602593e-02  2.7924652506038108e-02  2.6747344629909246e-02  2.5267001748932382e-02  2.3508556488340049e-02  2.1500046592920426e-02  1.9271434687412721e-02  1.6853486995976639e-02  1.4276800953489229e-02  1.1571054482965321e-02  8.7645257959264346e-03  5.8839043453472002e-03  2.9543838553880639e-03  0.0000000000000000e+00  0.0000000000000000e+00  2.4814512568361014e-03  4.9445187395789391e-03  7.3688956648055425e-03  9.7333569585139369e-03  1.2015457674251868e-02  1.4191425071064153e-02  1.6236282347923396e-02  1.8124217219701217e-02  1.9829182590809298e-02  2.1325691956901312e-02  2.2589751079126807e-02  2.3599851908477822e-02  2.4337946212041141e-02  2.4790315749810197e-02  2.4948263292966903e-02  2.4808563592566620e-02  2.4373634191941811e-02  2.3651410711283533e-02  2.2654937497188065e-02  2.1401709741259274e-02  1.9912824851020770e-02  1.8212016880700767e-02  1.6324656648105767e-02  1.4276800953489238e-02  1.2094367062760486e-02  9.8024941186965024e-03  7.4251329410840068e-03  4.9848819193533704e-03  2.5030619328743485e-03  0.0000000000000000e+00  0.0000000000000000e+00  2.0098744878775010e-03  4.0050378144351213e-03  5.9689859127218161e-03  7.8844919180605065e-03  9.7333569585139317e-03  1.1496316828124688e-02  1.3153137192724025e-02  1.4682908305331711e-02  1.6064528769986725e-02  1.7277347921478850e-02  1.8301919367791186e-02  1.9120805673408826e-02  1.9719367261894060e-02  2.0086468107809473e-02  2.0215036783544558e-02  2.0102433394834487e-02  1.9750589746832272e-02  1.9165910103701164e-02  1.8358941180270334e-02  1.7343840442697461e-02  1.6137689385190352e-02  1.4759711466255640e-02  1.3230461565584072e