<?xml version="1.0"?>
<VTKFile type="UnstructuredGrid"  version="0.1"  >
<UnstructuredGrid>
<Piece  NumberOfPoints="961" NumberOfCells="1800">
<Points>
<DataArray  type="Float64"  NumberOfComponents="3"  format="ascii">-2 -2 0  -1.866666666666667 -2 0  -1.733333333333333 -2 0  -1.6 -2 0  -1.466666666666667 -2 0  -1.333333333333333 -2 0  -1.2 -2 0  -1.066666666666667 -2 0  -0.9333333333333333 -2 0  -0.8 -2 0  -0.6666666666666667 -2 0  -0.5333333333333334 -2 0  -0.3999999999999999 -2 0  -0.2666666666666666 -2 0  -0.1333333333333333 -2 0  0 -2 0  0.1333333333333333 -2 0  0.2666666666666666 -2 0  0.3999999999999999 -2 0  0.5333333333333332 -2 0  0.6666666666666665 -2 0  0.7999999999999998 -2 0  0.9333333333333331 -2 0  1.066666666666667 -2 0  1.2 -2 0  1.333333333333333 -2 0  1.466666666666667 -2 0  1.6 -2 0  1.733333333333333 -2 0  1.866666666666667 -2 0  2 -2 0  -2 -1.866666666666667 0  -1.866666666666667 -1.866666666666667 0  -1.733333333333333 -1.866666666666667 0  -1.6 -1.866666666666667 0  -1.466666666666667 -1.866666666666667 0  -1.333333333333333 -1.866666666666667 0  -1.2 -1.866666666666667 0  -1.066666666666667 -1.866666666666667 0  -0.9333333333333333 -1.866666666666667 0  -0.8 -1.866666666666667 0  -0.6666666666666667 -1.866666666666667 0  -0.5333333333333334 -1.866666666666667 0  -0.3999999999999999 -1.866666666666667 0  -0.2666666666666666 -1.866666666666667 0  -0.1333333333333333 -1.866666666666667 0  0 -1.866666666666667 0  0.1333333333333333 -1.866666666666667 0  0.2666666666666666 -1.866666666666667 0  0.3999999999999999 -1.866666666666667 0  0.5333333333333332 -1.866666666666667 0  0.6666666666666665 -1.866666666666667 0  0.7999999999999998 -1.866666666666667 0  0.9333333333333331 -1.866666666666667 0  1.066666666666667 -1.866666666666667 0  1.2 -1.866666666666667 0  1.333333333333333 -1.866666666666667 0  1.466666666666667 -1.866666666666667 0  1.6 -1.866666666666667 0  1.733333333333333 -1.866666666666667 0  1.866666666666667 -1.866666666666667 0  2 -1.866666666666667 0  -2 -1.733333333333333 0  -1.866666666666667 -1.733333333333333 0  -1.733333333333333 -1.733333333333333 0  -1.6 -1.733333333333333 0  -1.466666666666667 -1.733333333333333 0  -1.333333333333333 -1.733333333333333 0  -1.2 -1.733333333333333 0  -1.066666666666667 -1.733333333333333 0  -0.9333333333333333 -1.733333333333333 0  -0.8 -1.733333333333333 0  -0.6666666666666667 -1.733333333333333 0  -0.5333333333333334 -1.733333333333333 0  -0.3999999999999999 -1.733333333333333 0  -0.2666666666666666 -1.733333333333333 0  -0.1333333333333333 -1.733333333333333 0  0 -1.733333333333333 0  0.1333333333333333 -1.733333333333333 0  0.2666666666666666 -1.733333333333333 0  0.3999999999999999 -1.733333333333333 0  0.5333333333333332 -1.733333333333333 0  0.6666666666666665 -1.733333333333333 0  0.7999999999999998 -1.733333333333333 0  0.9333333333333331 -1.733333333333333 0  1.066666666666667 -1.733333333333333 0  1.2 -1.733333333333333 0  1.333333333333333 -1.733333333333333 0  1.466666666666667 -1.733333333333333 0  1.6 -1.733333333333333 0  1.733333333333333 -1.733333333333333 0  1.866666666666667 -1.733333333333333 0  2 -1.733333333333333 0  -2 -1.6 0  -1.866666666666667 -1.6 0  -1.733333333333333 -1.6 0  -1.6 -1.6 0  -1.466666666666667 -1.6 0  -1.333333333333333 -1.6 0  -1.2 -1.6 0  -1.066666666666667 -1.6 0  -0.9333333333333333 -1.6 0  -0.8 -1.6 0  -0.6666666666666667 -1.6 0  -0.5333333333333334 -1.6 0  -0.3999999999999999 -1.6 0  -0.2666666666666666 -1.6 0  -0.1333333333333333 -1.6 0  0 -1.6 0  0.1333333333333333 -1.6 0  0.2666666666666666 -1.6 0  0.3999999999999999 -1.6 0  0.5333333333333332 -1.6 0  0.6666666666666665 -1.6 0  0.7999999999999998 -1.6 0  0.9333333333333331 -1.6 0  1.066666666666667 -1.6 0  1.2 -1.6 0  1.333333333333333 -1.6 0  1.466666666666667 -1.6 0  1.6 -1.6 0  1.733333333333333 -1.6 0  1.866666666666667 -1.6 0  2 -1.6 0  -2 -1.466666666666667 0  -1.866666666666667 -1.466666666666667 0  -1.733333333333333 -1.466666666666667 0  -1.6 -1.466666666666667 0  -1.466666666666667 -1.466666666666667 0  -1.333333333333333 -1.466666666666667 0  -1.2 -1.466666666666667 0  -1.066666666666667 -1.466666666666667 0  -0.9333333333333333 -1.466666666666667 0  -0.8 -1.466666666666667 0  -0.6666666666666667 -1.466666666666667 0  -0.5333333333333334 -1.466666666666667 0  -0.3999999999999999 -1.466666666666667 0  -0.2666666666666666 -1.466666666666667 0  -0.1333333333333333 -1.466666666666667 0  0 -1.466666666666667 0  0.1333333333333333 -1.466666666666667 0  0.2666666666666666 -1.466666666666667 0  0.3999999999999999 -1.466666666666667 0  0.5333333333333332 -1.466666666666667 0  0.6666666666666665 -1.466666666666667 0  0.7999999999999998 -1.466666666666667 0  0.9333333333333331 -1.466666666666667 0  1.066666666666667 -1.466666666666667 0  1.2 -1.466666666666667 0  1.333333333333333 -1.466666666666667 0  1.466666666666667 -1.466666666666667 0  1.6 -1.466666666666667 0  1.733333333333333 -1.466666666666667 0  1.866666666666667 -1.466666666666667 0  2 -1.466666666666667 0  -2 -1.333333333333333 0  -1.866666666666667 -1.333333333333333 0  -1.733333333333333 -1.333333333333333 0  -1.6 -1.333333333333333 0  -1.466666666666667 -1.333333333333333 0  -1.333333333333333 -1.333333333333333 0  -1.2 -1.333333333333333 0  -1.066666666666667 -1.333333333333333 0  -0.9333333333333333 -1.333333333333333 0  -0.8 -1.333333333333333 0  -0.6666666666666667 -1.333333333333333 0  -0.5333333333333334 -1.333333333333333 0  -0.3999999999999999 -1.333333333333333 0  -0.2666666666666666 -1.333333333333333 0  -0.1333333333333333 -1.333333333333333 0  0 -1.333333333333333 0  0.1333333333333333 -1.333333333333333 0  0.2666666666666666 -1.333333333333333 0  0.3999999999999999 -1.333333333333333 0  0.5333333333333332 -1.333333333333333 0  0.6666666666666665 -1.333333333333333 0  0.7999999999999998 -1.333333333333333 0  0.9333333333333331 -1.333333333333333 0  1.066666666666667 -1.333333333333333 0  1.2 -1.333333333333333 0  1.333333333333333 -1.333333333333333 0  1.466666666666667 -1.333333333333333 0  1.6 -1.333333333333333 0  1.733333333333333 -1.333333333333333 0  1.866666666666667 -1.333333333333333 0  2 -1.333333333333333 0  -2 -1.2 0  -1.866666666666667 -1.2 0  -1.733333333333333 -1.2 0  -1.6 -1.2 0  -1.466666666666667 -1.2 0  -1.333333333333333 -1.2 0  -1.2 -1.2 0  -1.066666666666667 -1.2 0  -0.9333333333333333 -1.2 0  -0.8 -1.2 0  -0.6666666666666667 -1.2 0  -0.5333333333333334 -1.2 0  -0.3999999999999999 -1.2 0  -0.2666666666666666 -1.2 0  -0.1333333333333333 -1.2 0  0 -1.2 0  0.1333333333333333 -1.2 0  0.2666666666666666 -1.2 0  0.3999999999999999 -1.2 0  0.5333333333333332 -1.2 0  0.6666666666666665 -1.2 0  0.7999999999999998 -1.2 0  0.9333333333333331 -1.2 0  1.066666666666667 -1.2 0  1.2 -1.2 0  1.333333333333333 -1.2 0  1.466666666666667 -1.2 0  1.6 -1.2 0  1.733333333333333 -1.2 0  1.866666666666667 -1.2 0  2 -1.2 0  -2 -1.066666666666667 0  -1.866666666666667 -1.066666666666667 0  -1.733333333333333 -1.066666666666667 0  -1.6 -1.066666666666667 0  -1.466666666666667 -1.066666666666667 0  -1.333333333333333 -1.066666666666667 0  -1.2 -1.066666666666667 0  -1.066666666666667 -1.066666666666667 0  -0.9333333333333333 -1.066666666666667 0  -0.8 -1.066666666666667 0  -0.6666666666666667 -1.066666666666667 0  -0.5333333333333334 -1.066666666666667 0  -0.3999999999999999 -1.066666666666667 0  -0.2666666666666666 -1.066666666666667 0  -0.1333333333333333 -1.066666666666667 0  0 -1.066666666666667 0  0.1333333333333333 -1.066666666666667 0  0.2666666666666666 -1.066666666666667 0  0.3999999999999999 -1.066666666666667 0  0.5333333333333332 -1.066666666666667 0  0.6666666666666665 -1.066666666666667 0  0.7999999999999998 -1.066666666666667 0  0.9333333333333331 -1.066666666666667 0  1.066666666666667 -1.066666666666667 0  1.2 -1.066666666666667 0  1.333333333333333 -1.066666666666667 0  1.466666666666667 -1.066666666666667 0  1.6 -1.066666666666667 0  1.733333333333333 -1.066666666666667 0  1.866666666666667 -1.066666666666667 0  2 -1.066666666666667 0  -2 -0.9333333333333333 0  -1.866666666666667 -0.9333333333333333 0  -1.733333333333333 -0.9333333333333333 0  -1.6 -0.9333333333333333 0  -1.466666666666667 -0.9333333333333333 0  -1.333333333333333 -0.9333333333333333 0  -1.2 -0.9333333333333333 0  -1.066666666666667 -0.9333333333333333 0  -0.9333333333333333 -0.9333333333333333 0  -0.8 -0.9333333333333333 0  -0.6666666666666667 -0.9333333333333333 0  -0.5333333333333334 -0.9333333333333333 0  -0.3999999999999999 -0.9333333333333333 0  -0.2666666666666666 -0.9333333333333333 0  -0.1333333333333333 -0.9333333333333333 0  0 -0.9333333333333333 0  0.1333333333333333 -0.9333333333333333 0  0.2666666666666666 -0.9333333333333333 0  0.3999999999999999 -0.9333333333333333 0  0.5333333333333332 -0.9333333333333333 0  0.6666666666666665 -0.9333333333333333 0  0.7999999999999998 -0.9333333333333333 0  0.9333333333333331 -0.9333333333333333 0  1.066666666666667 -0.9333333333333333 0  1.2 -0.9333333333333333 0  1.333333333333333 -0.9333333333333333 0  1.466666666666667 -0.9333333333333333 0  1.6 -0.9333333333333333 0  1.733333333333333 -0.9333333333333333 0  1.866666666666667 -0.9333333333333333 0  2 -0.9333333333333333 0  -2 -0.8 0  -1.866666666666667 -0.8 0  -1.733333333333333 -0.8 0  -1.6 -0.8 0  -1.466666666666667 -0.8 0  -1.333333333333333 -0.8 0  -1.2 -0.8 0  -1.066666666666667 -0.8 0  -0.9333333333333333 -0.8 0  -0.8 -0.8 0  -0.6666666666666667 -0.8 0  -0.5333333333333334 -0.8 0  -0.3999999999999999 -0.8 0  -0.2666666666666666 -0.8 0  -0.1333333333333333 -0.8 0  0 -0.8 0  0.1333333333333333 -0.8 0  0.2666666666666666 -0.8 0  0.3999999999999999 -0.8 0  0.5333333333333332 -0.8 0  0.6666666666666665 -0.8 0  0.7999999999999998 -0.8 0  0.9333333333333331 -0.8 0  1.066666666666667 -0.8 0  1.2 -0.8 0  1.333333333333333 -0.8 0  1.466666666666667 -0.8 0  1.6 -0.8 0  1.733333333333333 -0.8 0  1.866666666666667 -0.8 0  2 -0.8 0  -2 -0.6666666666666667 0  -1.866666666666667 -0.
[...]
<PointData  Scalars="f_12"> 
<DataArray  type="Float64"  Name="f_12"  format="ascii">0.0000000000000000e+00  0.0000000000000000e+00  0.0000000000000000e+00  0.0000000000000000e+00  0.0000000000000000e+00  0.0000000000000000e+00  0.0000000000000000e+00  0.0000000000000000e+00  0.0000000000000000e+00  0.0000000000000000e+00  0.0000000000000000e+00  0.0000000000000000e+00  0.0000000000000000e+00  0.0000000000000000e+00  0.0000000000000000e+00  0.0000000000000000e+00  0.0000000000000000e+00  0.0000000000000000e+00  0.0000000000000000e+00  0.0000000000000000e+00  0.0000000000000000e+00  0.0000000000000000e+00  0.0000000000000000e+00  0.0000000000000000e+00  0.0000000000000000e+00  0.0000000000000000e+00  0.0000000000000000e+00  0.0000000000000000e+00  0.0000000000000000e+00  0.0000000000000000e+00  0.0000000000000000e+00  0.0000000000000000e+00  2.0481891266072534e-04  4.0703708280774201e-04  6.0459775409908885e-04  7.9541522913446992e-04  9.7744339991254117e-04  1.1487144128567888e-03  1.3073669695097465e-03  1.4516701469303940e-03  1.5800445910870585e-03  1.6910816185031086e-03  1.7835602849118862e-03  1.8564622954678233e-03  1.9089845641361276e-03  1.9405492191621849e-03  1.9508108730086804e-03  1.9396610175035874e-03  1.9072294611997399e-03  1.8538827906462326e-03  1.7802199055815583e-03  1.6870647457280276e-03  1.5754563906131638e-03  1.4466367721300292e-03  1.3020362940740170e-03  1.1432577118788601e-03  9.7205871236360271e-04  7.9033380962572849e-04  6.0009661575951374e-04  4.0346480015757857e-04  2.0265396532612569e-04  0.0000000000000000e+00  0.0000000000000000e+00  4.0703708280774218e-04  8.0913248237544835e-04  1.2020488996833864e-03  1.5815912419705209e-03  1.9436727271920460e-03  2.2843719646309271e-03  2.5999830835123799e-03  2.8870609839082048e-03  3.1424626731247473e-03  3.3633849133375706e-03  3.5473980139694829e-03  3.6924754141133211e-03  3.7970186295020695e-03  3.8598771408560571e-03  3.8803628528144064e-03  3.8582588410441517e-03  3.7938222188215387e-03  3.6877810837608401e-03  3.5413256412490995e-03  3.3560937350768866e-03  3.1341511407730173e-03  2.8779670889811410e-03  2.5903855851050943e-03  2.2745931853277970e-03  1.9340839996740233e-03  1.5726228675230630e-03  1.1942079837379120e-03  8.0303489645448150e-04  4.0346480015757889e-04  0.0000000000000000e+00  0.0000000000000000e+00  6.0459775409908896e-04  1.2020488996833864e-03  1.7859613755348634e-03  2.3500546017454086e-03  2.8882322400580591e-03  3.3946544216437698e-03  3.8638065505389885e-03  4.2905639873036232e-03  4.6702522902687888e-03  4.9987025906015180e-03  5.2723015254151906e-03  5.4880350556661120e-03  5.6435254684426995e-03  5.7370609011739909e-03  5.7676168188450019e-03  5.7348690140153740e-03  5.6391978718323627e-03  5.4816838358850315e-03  5.2640942127367991e-03  4.9888616507366796e-03  4.6590548111944000e-03  4.2783419089857397e-03  3.8509479311310329e-03  3.3816064474292296e-03  2.8755070146093175e-03  2.3382392557886925e-03  1.7757347675897010e-03  1.1942079837379126e-03  6.0009661575951428e-04  0.0000000000000000e+00  0.0000000000000000e+00  7.9541522913446948e-04  1.5815912419705207e-03  2.3500546017454090e-03  3.0925013671167872e-03  3.8008850953290536e-03  4.4675056502355001e-03  5.0850959019665609e-03  5.6469046836299846e-03  6.1467748812399385e-03  6.5792156587088689e-03  6.9394678148182107e-03  7.2235612545468765e-03  7.4283635823501762e-03  7.5516189065750671e-03  7.5919760836871989e-03  7.5490058219370472e-03  7.4232062951553315e-03  7.2159971739971440e-03  6.9297022478664819e-03  6.5675210694197154e-03  6.1334902897030698e-03  5.6324355530214401e-03  5.0699149776180516e-03  4.4521553559763458e-03  3.7859822635863388e-03  3.0787452586859012e-03  2.3382392557886942e-03  1.5726228675230641e-03  7.9033380962572925e-04  0.0000000000000000e+00  0.0000000000000000e+00  9.7744339991254117e-04  1.9436727271920460e-03  2.8882322400580595e-03  3.8008850953290549e-03  4.6717198502018720e-03  5.4912570012043494e-03  6.2505533670275289e-03  6.9413025413411116e-03  7.5559299083977497e-03  8.0876808219275641e-03  8.5307005800136435e-03  8.8801048556674950e-03  9.1320393069260521e-03  9.2837272116961089e-03  9.3335041566185318e-03  9.2808390511186795e-03  9.1263410256782335e-03  8.8717520905141935e-03  8.5199257577989462e-03  8.0747921469841860e-03  7.5413103794187697e-03  6.9254093086077995e-03  6.2339178131045735e-03  5.4744859906960324e-03  4.6554986275338757e-03  3.7859822635863375e-03  2.8755070146093188e-03  1.9340839996740248e-03  9.7205871236360358e-04  0.0000000000000000e+00  0.0000000000000000e+00  1.1487144128567892e-03  2.2843719646309288e-03  3.3946544216437737e-03  4.4675056502355018e-03  5.4912570012043494e-03  6.4547516706292786e-03  7.3474663214721939e-03  8.1596282392347574e-03  8.8823263335455586e-03  9.5076143167468919e-03  1.0028604401876220e-02  1.0439549897541974e-02  1.0735915163148131e-02  1.0914431540533499e-02  1.0973138101699734e-02  1.0911406341385087e-02  1.0729948284406595e-02  1.0430807851811387e-02  1.0017335714299474e-02  9.4941482322256562e-03  8.8670714158288408e-03  8.1430711170942926e-03  7.3301708699212388e-03  6.4373589167907516e-03  5.4744859906960333e-03  4.4521553559763467e-03  3.3816064474292296e-03  2.2745931853277983e-03  1.1432577118788614e-03  0.0000000000000000e+00  0.0000000000000000e+00  1.3073669695097474e-03  2.5999830835123812e-03  3.8638065505389924e-03  5.0850959019665644e-03  6.2505533670275332e-03  7.3474663214722026e-03  8.3638452936393680e-03  9.2885568292711065e-03  1.0111449414395525e-02  1.0823470592546130e-02  1.1416773386558983e-02  1.1884810161524791e-02  1.2222412161049977e-02  1.2425853124475077e-02  1.2492895649812088e-02  1.2422819298417322e-02  1.2216429827256511e-02  1.1876049361259283e-02  1.1405487755957929e-02  1.0809995822173325e-02  1.0096201463800148e-02  9.2720300938944501e-03  8.3466109254620221e-03  7.3301708699212422e-03  6.2339178131045744e-03  5.0699149776180482e-03  3.8509479311310268e-03  2.5903855851050939e-03  1.3020362940740172e-03  0.0000000000000000e+00  0.0000000000000000e+00  1.4516701469303958e-03  2.8870609839082091e-03  4.2905639873036337e-03  5.6469046836299941e-03  6.9413025413411185e-03  8.1596282392347643e-03  9.2885568292711065e-03  1.0315715070994684e-02  1.1229821038047151e-02  1.2020813976206135e-02  1.2679972331879612e-02  1.3200017882693978e-02  1.3575204000535485e-02  1.3801386269593603e-02  1.3876073966895375e-02  1.3798461280869987e-02  1.3569437576759769e-02  1.3191576491760016e-02  1.2669104128956372e-02  1.2007847087233707e-02  1.1215161485382364e-02  1.0299844487461815e-02  9.2720300938944414e-03  8.1430711170942891e-03  6.9254093086077995e-03  5.6324355530214375e-03  4.2783419089857319e-03  2.8779670889811392e-03  1.4466367721300301e-03  0.0000000000000000e+00  0.0000000000000000e+00  1.5800445910870607e-03  3.1424626731247534e-03  4.6702522902688009e-03  6.1467748812399584e-03  7.5559299083977653e-03  8.8823263335455725e-03  1.0111449414395530e-02  1.1229821038047153e-02  1.2225151593399501e-02  1.3086481226503289e-02  1.3804308236230460e-02  1.4370702367726938e-02  1.4779400860448804e-02  1.5025885312351848e-02  1.5107437729704217e-02  1.5023174531542276e-02  1.4774057748970200e-02  1.4362883175431213e-02  1.3794245753429203e-02  1.3074482993067280e-02  1.2211597676754875e-02  1.1215161485382368e-02  1.0096201463800157e-02  8.8670714158288408e-03  7.5413103794187740e-03  6.1334902897030716e-03  4.6590548111944052e-03  3.1341511407730212e-03  1.5754563906131668e-03  0.0000000000000000e+00  0.0000000000000000e+00  1.6910816185031121e-03  3.3633849133375767e-03  4.9987025906015328e-03  6.5792156587088889e-03  8.0876808219275953e-03  9.5076143167469093e-03  1.0823470592546137e-02  1.2020813976206140e-02  1.3086481226503292e-02  1.4008732703574929e-02  1.4777389773994421e-02  1.5383956062363228e-02  1.5821720259724247e-02  1.6085838413699118e-02  1.6173393951935872e-02  1.6083434116393493e-02  1.5816981989389890e-02  1.5377023844210613e-02  1.4768472119789766e-02  1.3998104865321730e-02  1.3074482993067295e-02  1.2007847087233724e-02  1.0809995822173337e-02  9.4941482322256614e-03  8.0747921469841947e-03  6.5675210694197258e-03  4.9888616507366909e-03  3.3560937350768944e-03  1.6870647457280323e-03  0.0000000000000000e+00  0.0000000000000000e+00  1.7835602849118888e-03  3.5473980139694877e-03  5.2723015254152010e-03  6.9394678148182246e-03  8.5307005800136625e-03  1.0028604401876241e-02  1.1416773386558988e-02  1.2679972331879617e-02  1.3804308236230464e-02  1.4777389773994426e-02  1.5588472244686437e-02  1.6228585486611900e-02  1.6690642345413717e-02  1.6969525510214578e-02  1.7062150871760537e-02  1.6967506004313290e-02  1.6686662902860062e-02  1.6222764688818461e-02  1.5580986595277728e-02  1.4768472119789782e-02  1.3794245753429215e-02  1.2669104128956409e-02  1.1405487755957943e-02  1.0017335714299483e-02  8.5199257577989636e-03  6.9297022478664993e-03  5.2640942127368138e-03  3.5413256412491112e-03  1.7802199055815650e-03  0.0000000000000000e+00  0.0000000000000000e+00  1.8564622954678250e-03  3.6924754141133245e-03  5.4880350556661232e-03  7.2235612545468886e-03  8.8801048556675088e-03  1.0439549897541983e-02  1.1884810161524791e-02  1.3200017882693985e-02  1.4370702367726947e-02  1.5383956062363233e-02  1.6228585486611893e-02  1.6895244434949403e-02  1.7376546938635842e-02  1.7667157715441056e-02  1.7763858185166691e-02  1.7665586593122781e-02  1.7373451334041494e-02  1.6890717173804609e-02  1.6222764688818447e-02  1.5377023844210629e-02  1.4362883175431244e-02  1.3191576491760058e-02  1.1876049361259302e-02  1.0430807851811405e-02  8.8717520905142230e-03  7.2159971739971665e-03  5.4816838358850506e-03  3.6877810837608535e-03  1.8538827906462402e-03  0.0000000000000000e+00  0.0000000000000000e+00  1.9089845641361285e-03  3.7970186295020734e-03  5.6435254684427038e-03  7.4283635823501866e-03  9.1320393069260607e-03  1.0735915163148139e-02  1.2222412161049984e-02  1.3575204000535492e-02  1.4779400860448801e-02  1.5821720259724257e-02  1.6690642345413703e-02  1.7376546938635818e-02  1.7871829769522510e-02  1.8170995564252869e-02  1.8270726008107339e-02  1.8169921083649915e-02  1.7869712847920650e-02  1.7373451334041508e-02  1.6686662902860083e-02  1.5816981989389915e-02  1.4774057748970240e-02  1.3569437576759805e-02  1.2216429827256538e-02  1.0729948284406618e-02  9.1263410256782578e-03  7.4232062951553593e-03  5.6391978718323800e-03  3.7938222188215525e-03  1.9072294611997475e-03  0.0000000000000000e+00  0.0000000000000000e+00  1.9405492191621871e-03  3.8598771408560641e-03  5.7370609011739996e-03  7.5516189065750767e-03  9.2837272116961193e-03  1.0914431540533504e-02  1.2425853124475075e-02  1.3801386269593600e-02  1.5025885312351842e-02  1.6085838413699118e-02  1.6969525510214575e-02  1.7667157715441049e-02  1.8170995564252865e-02  1.8475443726807792e-02  1.8577120183469614e-02  1.8474898333535245e-02  1.8169921083649919e-02  1.7665586593122794e-02  1.6967506004313307e-02  1.6083434116393514e-02  1.5023174531542312e-02  1.3798461280870027e-02  1.2422819298417355e-02  1.0911406341385115e-02  9.2808390511187090e-03  7.5490058219370732e-03  5.7348690140153922e-03  3.8582588410441673e-03  1.9396610175035952e-03  0.0000000000000000e+00  0.0000000000000000e+00  1.9508108730086841e-03  3.8803628528144185e-03  5.7676168188450115e-03  7.5919760836872085e-03  9.3335041566185387e-03  1.0973138101699744e-02  1.2492895649812092e-02  1.3876073966895377e-02  1.5107437729704220e-02  1.6173393951935882e-02  1.7062150871760551e-02  1.7763858185166705e-02  1.8270726008107342e-02  1.8577120183469610e-02  1.8679631913832612e-02  1.8577120183469620e-02  1.8270726008107349e-02  1.7763858185166709e-02  1.7062150871760544e-02  1.6173393951935892e-02  1.5107437729704251e-02  1.3876073966895421e-02  1.2492895649812137e-02  1.0973138101699772e-02  9.3335041566185630e-03  7.5919760836872258e-03  5.7676168188450245e-03  3.8803628528144233e-03  1.9508108730086884e-03  0.0000000000000000e+00  0.0000000000000000e+00  1.9396610175035913e-03  3.8582588410441595e-03  5.7348690140153809e-03  7.5490058219370611e-03  9.2808390511186969e-03  1.0911406341385099e-02  1.2422819298417324e-02  1.3798461280869994e-02  1.5023174531542288e-02  1.6083434116393507e-02  1.6967506004313314e-02  1.7665586593122805e-02  1.8169921083649936e-02  1.8474898333535245e-02  1.8577120183469620e-02  1.8475443726807809e-02  1.8170995564252890e-02  1.7667157715441056e-02  1.6969525510214564e-02  1.6085838413699139e-02  1.5025885312351880e-02  1.3801386269593641e-02  1.2425853124475113e-02  1.0914431540533528e-02  9.2837272116961383e-03  7.5516189065750932e-03  5.7370609011740160e-03  3.8598771408560732e-03  1.9405492191621925e-03  0.0000000000000000e+00  0.0000000000000000e+00  1.9072294611997441e-03  3.7938222188215473e-03  5.6391978718323722e-03  7.4232062951553515e-03  9.1263410256782560e-03  1.0729948284406609e-02  1.2216429827256516e-02  1.3569437576759779e-02  1.4774057748970209e-02  1.5816981989389908e-02  1.6686662902860097e-02  1.7373451334041511e-02  1.7869712847920684e-02  1.8169921083649950e-02  1.8270726008107370e-02  1.8170995564252886e-02  1.7871829769522517e-02  1.7376546938635825e-02  1.6690642345413721e-02  1.5821720259724271e-02  1.4779400860448844e-02  1.3575204000535529e-02  1.2222412161050010e-02  1.0735915163148159e-02  9.1320393069260833e-03  7.4283635823502022e-03  5.6435254684427194e-03  3.7970186295020851e-03  1.9089845641361361e-03  0.0000000000000000e+00  0.0000000000000000e+00  1.8538827906462371e-03  3.6877810837608487e-03  5.4816838358850446e-03  7.2159971739971605e-03  8.8717520905142195e-03  1.0430807851811405e-02  1.1876049361259289e-02  1.3191576491760034e-02  1.4362883175431237e-02  1.5377023844210637e-02  1.6222764688818479e-02  1.6890717173804637e-02  1.7373451334041522e-02  1.7665586593122808e-02  1.7763858185166719e-02  1.7667157715441056e-02  1.7376546938635822e-02  1.6895244434949396e-02  1.6228585486611907e-02  1.5383956062363249e-02  1.4370702367726971e-02  1.3200017882694011e-02  1.1884810161524810e-02  1.0439549897541998e-02  8.8801048556675227e-03  7.2235612545469008e-03  5.4880350556661354e-03  3.6924754141133345e-03  1.8564622954678305e-03  0.0000000000000000e+00  0.0000000000000000e+00  1.7802199055815628e-03  3.5413256412491086e-03  5.2640942127368130e-03  6.9297022478664975e-03  8.5199257577989618e-03  1.0017335714299490e-02  1.1405487755957939e-02  1.2669104128956391e-02  1.3794245753429222e-02  1.4768472119789790e-02  1.5580986595277759e-02  1.6222764688818479e-02  1.6686662902860090e-02  1.6967506004313317e-02  1.7062150871760565e-02  1.6969525510214589e-02  1.6690642345413727e-02  1.6228585486611900e-02  1.5588472244686449e-02  1.4777389773994449e-02  1.3804308236230488e-02  1.2679972331879645e-02  1.1416773386559009e-02  1.0028604401876249e-02  8.5307005800136695e-03  6.9394678148182376e-03  5.2723015254152079e-03  3.5473980139694955e-03  1.7835602849118929e-03  0.0000000000000000e+00  0.0000000000000000e+00  1.6870647457280330e-03  3.3560937350768979e-03  4.9888616507366970e-03  6.5675210694197310e-03  8.0747921469841982e-03  9.4941482322256684e-03  1.0809995822173334e-02  1.2007847087233721e-02  1.3074482993067307e-02  1.3998104865321754e-02  1.4768472119789803e-02  1.5377023844210644e-02  1.5816981989389908e-02  1.6083434116393517e-02  1.6173393951935896e-02  1.6085838413699143e-02  1.5821720259724278e-02  1.5383956062363252e-02  1.4777389773994450e-02  1.4008732703574963e-02  1.3086481226503322e-02  1.2020813976206170e-02  1.0823470592546168e-02  9.5076143167469283e-03  8.0876808219276092e-03  6.5792156587089010e-03  4.9987025906015380e-03  3.3633849133375845e-03  1.6910816185031167e-03  0.0000000000000000e+00  0.0000000000000000e+00  1.5754563906131703e-03  3.1341511407730295e-03  4.6590548111944191e-03  6.1334902897030854e-03  7.5413103794187853e-03  8.8670714158288529e-03  1.0096201463800161e-02  1.1215161485382376e-02  1.2211597676754889e-02  1.3074482993067311e-02  1.3794245753429229e-02  1.4362883175431251e-02  1.4774057748970231e-02  1.5023174531542303e-02  1.5107437729704257e-02  1.5025885312351883e-02  1.4779400860448837e-02  1.4370702367726980e-02  1.3804308236230510e-02  1.3086481226503343e-02  1.2225151593399559e-02  1.1229821038047212e-02  1.0111449414395577e-02  8.8823263335455985e-03  7.5559299083977930e-03  6.1467748812399792e-03  4.6702522902688113e-03  3.1424626731247633e-03  1.5800445910870667e-03  0.0000000000000000e+00  0.0000000000000000e+00  1.4466367721300355e-03  2.8779670889811522e-03  4.2783419089857562e-03  5.6324355530214566e-03  6.9254093086078177e-03  8.1430711170943099e-03  9.2720300938944587e-03  1.0299844487461823e-02  1.1215161485382378e-02  1.2007847087233736e-02  1.2669104128956410e-02  1.3191576491760056e-02  1.3569437576759803e-02  1.3798461280870025e-02  1.3876073966895424e-02  1.3801386269593640e-02  1.3575204000535532e-02  1.3200017882694025e-02  1.2679972331879676e-02  1.2020813976206199e-02  1.1229821038047228e-02  1.0315715070994753e-02  9.2885568292711690e-03  8.1596282392348042e-03  6.9413025413411567e-03  5.6469046836300210e-03  4.2905639873036493e-03  2.8870609839082208e-03  1.4516701469304020e-03  0.0000000000000000e+00  0.0000000000000000e+00  1.3020362940740220e-03  2.5903855851051043e-03  3.8509479311310459e-03  5.0699149776180655e-03  6.2339178131045943e-03  7.3301708699212605e-03  8.3466109254620377e-03  9.2720300938944535e-03  1.0096201463800161e-02  1.0809995822173341e-02  1.1405487755957953e-02  1.1876049361259303e-02  1.2216429827256530e-02  1.2422819298417343e-02  1.2492895649812119e-02  1.2425853124475106e-02  1.2222412161050019e-02  1.1884810161524824e-02  1.1416773386559036e-02  1.0823470592546193e-02  1.0111449414395592e-02  9.2885568292711742e-03  8.3638452936394235e-03  7.3474663214722416e-03  6.2505533670275653e-03  5.0850959019665912e-03  3.8638065505390063e-03  2.5999830835123899e-03  1.3073669695097530e-03  0.0000000000000000e+00  0.0000000000000000e+00  1.1432577118788646e-03  2.2745931853278049e-03  3.3816064474292418e-03  4.4521553559763605e-03  5.4744859906960515e-03  6.4373589167907681e-03  7.3301708699212561e-03  8.1430711170942978e-03  8.8670714158288529e-03  9.4941482322256718e-03  1.0017335714299495e-02  1.0430807851811410e-02  1.0729948284406616e-02  1.0911406341385104e-02  1.0973138101699757e-02  1.0914431540533530e-02  1.0735915163148169e-02  1.0439549897542014e-02  1.0028604401876274e-02  9.5076143167469544e-03  8.8823263335456228e-03  8.1596282392348164e-03  7.3474663214722485e-03  6.4547516706293133e-03  5.4912570012043745e-03  4.4675056502355192e-03  3.3946544216437841e-03  2.2843719646309358e-03  1.1487144128567936e-03  0.0000000000000000e+00  0.0000000000000000e+00  9.7205871236360640e-04  1.9340839996740307e-03  2.8755070146093283e-03  3.7859822635863496e-03  4.6554986275338895e-03  5.4744859906960489e-03  6.2339178131045831e-03  6.9254093086078055e-03  7.5413103794187792e-03  8.0747921469842016e-03  8.5199257577989601e-03  8.8717520905142195e-03  9.1263410256782508e-03  9.2808390511186969e-03  9.3335041566185543e-03  9.2837272116961505e-03  9.1320393069260902e-03  8.8801048556675383e-03  8.5307005800136903e-03  8.0876808219276300e-03  7.5559299083978139e-03  6.9413025413411688e-03  6.2505533670275748e-03  5.4912570012043806e-03  4.6717198502018954e-03  3.8008850953290692e-03  2.8882322400580703e-03  1.9436727271920536e-03  9.7744339991254485e-04  0.0000000000000000e+00  0.0000000000000000e+00  7.9033380962573153e-04  1.5726228675230689e-03  2.3382392557887012e-03  3.0787452586859112e-03  3.7859822635863505e-03  4.4521553559763571e-03  5.0699149776180594e-03  5.6324355530214427e-03  6.1334902897030776e-03  6.5675210694197276e-03  6.9297022478664984e-03  7.2159971739971648e-03  7.4232062951553619e-03  7.5490058219370671e-03  7.5919760836872224e-03  7.5516189065750949e-03  7.4283635823502100e-03  7.2235612545469112e-03  6.9394678148182480e-03  6.5792156587089149e-03  6.1467748812399914e-03  5.6469046836300323e-03  5.0850959019665964e