<?xml version="1.0"?>
<VTKFile type="UnstructuredGrid"  version="0.1"  >
<UnstructuredGrid>
<Piece  NumberOfPoints="961" NumberOfCells="1800">
<Points>
<DataArray  type="Float64"  NumberOfComponents="3"  format="ascii">-2 -2 0  -1.866666666666667 -2 0  -1.733333333333333 -2 0  -1.6 -2 0  -1.466666666666667 -2 0  -1.333333333333333 -2 0  -1.2 -2 0  -1.066666666666667 -2 0  -0.9333333333333333 -2 0  -0.8 -2 0  -0.6666666666666667 -2 0  -0.5333333333333334 -2 0  -0.3999999999999999 -2 0  -0.2666666666666666 -2 0  -0.1333333333333333 -2 0  0 -2 0  0.1333333333333333 -2 0  0.2666666666666666 -2 0  0.3999999999999999 -2 0  0.5333333333333332 -2 0  0.6666666666666665 -2 0  0.7999999999999998 -2 0  0.9333333333333331 -2 0  1.066666666666667 -2 0  1.2 -2 0  1.333333333333333 -2 0  1.466666666666667 -2 0  1.6 -2 0  1.733333333333333 -2 0  1.866666666666667 -2 0  2 -2 0  -2 -1.866666666666667 0  -1.866666666666667 -1.866666666666667 0  -1.733333333333333 -1.866666666666667 0  -1.6 -1.866666666666667 0  -1.466666666666667 -1.866666666666667 0  -1.333333333333333 -1.866666666666667 0  -1.2 -1.866666666666667 0  -1.066666666666667 -1.866666666666667 0  -0.9333333333333333 -1.866666666666667 0  -0.8 -1.866666666666667 0  -0.6666666666666667 -1.866666666666667 0  -0.5333333333333334 -1.866666666666667 0  -0.3999999999999999 -1.866666666666667 0  -0.2666666666666666 -1.866666666666667 0  -0.1333333333333333 -1.866666666666667 0  0 -1.866666666666667 0  0.1333333333333333 -1.866666666666667 0  0.2666666666666666 -1.866666666666667 0  0.3999999999999999 -1.866666666666667 0  0.5333333333333332 -1.866666666666667 0  0.6666666666666665 -1.866666666666667 0  0.7999999999999998 -1.866666666666667 0  0.9333333333333331 -1.866666666666667 0  1.066666666666667 -1.866666666666667 0  1.2 -1.866666666666667 0  1.333333333333333 -1.866666666666667 0  1.466666666666667 -1.866666666666667 0  1.6 -1.866666666666667 0  1.733333333333333 -1.866666666666667 0  1.866666666666667 -1.866666666666667 0  2 -1.866666666666667 0  -2 -1.733333333333333 0  -1.866666666666667 -1.733333333333333 0  -1.733333333333333 -1.733333333333333 0  -1.6 -1.733333333333333 0  -1.466666666666667 -1.733333333333333 0  -1.333333333333333 -1.733333333333333 0  -1.2 -1.733333333333333 0  -1.066666666666667 -1.733333333333333 0  -0.9333333333333333 -1.733333333333333 0  -0.8 -1.733333333333333 0  -0.6666666666666667 -1.733333333333333 0  -0.5333333333333334 -1.733333333333333 0  -0.3999999999999999 -1.733333333333333 0  -0.2666666666666666 -1.733333333333333 0  -0.1333333333333333 -1.733333333333333 0  0 -1.733333333333333 0  0.1333333333333333 -1.733333333333333 0  0.2666666666666666 -1.733333333333333 0  0.3999999999999999 -1.733333333333333 0  0.5333333333333332 -1.733333333333333 0  0.6666666666666665 -1.733333333333333 0  0.7999999999999998 -1.733333333333333 0  0.9333333333333331 -1.733333333333333 0  1.066666666666667 -1.733333333333333 0  1.2 -1.733333333333333 0  1.333333333333333 -1.733333333333333 0  1.466666666666667 -1.733333333333333 0  1.6 -1.733333333333333 0  1.733333333333333 -1.733333333333333 0  1.866666666666667 -1.733333333333333 0  2 -1.733333333333333 0  -2 -1.6 0  -1.866666666666667 -1.6 0  -1.733333333333333 -1.6 0  -1.6 -1.6 0  -1.466666666666667 -1.6 0  -1.333333333333333 -1.6 0  -1.2 -1.6 0  -1.066666666666667 -1.6 0  -0.9333333333333333 -1.6 0  -0.8 -1.6 0  -0.6666666666666667 -1.6 0  -0.5333333333333334 -1.6 0  -0.3999999999999999 -1.6 0  -0.2666666666666666 -1.6 0  -0.1333333333333333 -1.6 0  0 -1.6 0  0.1333333333333333 -1.6 0  0.2666666666666666 -1.6 0  0.3999999999999999 -1.6 0  0.5333333333333332 -1.6 0  0.6666666666666665 -1.6 0  0.7999999999999998 -1.6 0  0.9333333333333331 -1.6 0  1.066666666666667 -1.6 0  1.2 -1.6 0  1.333333333333333 -1.6 0  1.466666666666667 -1.6 0  1.6 -1.6 0  1.733333333333333 -1.6 0  1.866666666666667 -1.6 0  2 -1.6 0  -2 -1.466666666666667 0  -1.866666666666667 -1.466666666666667 0  -1.733333333333333 -1.466666666666667 0  -1.6 -1.466666666666667 0  -1.466666666666667 -1.466666666666667 0  -1.333333333333333 -1.466666666666667 0  -1.2 -1.466666666666667 0  -1.066666666666667 -1.466666666666667 0  -0.9333333333333333 -1.466666666666667 0  -0.8 -1.466666666666667 0  -0.6666666666666667 -1.466666666666667 0  -0.5333333333333334 -1.466666666666667 0  -0.3999999999999999 -1.466666666666667 0  -0.2666666666666666 -1.466666666666667 0  -0.1333333333333333 -1.466666666666667 0  0 -1.466666666666667 0  0.1333333333333333 -1.466666666666667 0  0.2666666666666666 -1.466666666666667 0  0.3999999999999999 -1.466666666666667 0  0.5333333333333332 -1.466666666666667 0  0.6666666666666665 -1.466666666666667 0  0.7999999999999998 -1.466666666666667 0  0.9333333333333331 -1.466666666666667 0  1.066666666666667 -1.466666666666667 0  1.2 -1.466666666666667 0  1.333333333333333 -1.466666666666667 0  1.466666666666667 -1.466666666666667 0  1.6 -1.466666666666667 0  1.733333333333333 -1.466666666666667 0  1.866666666666667 -1.466666666666667 0  2 -1.466666666666667 0  -2 -1.333333333333333 0  -1.866666666666667 -1.333333333333333 0  -1.733333333333333 -1.333333333333333 0  -1.6 -1.333333333333333 0  -1.466666666666667 -1.333333333333333 0  -1.333333333333333 -1.333333333333333 0  -1.2 -1.333333333333333 0  -1.066666666666667 -1.333333333333333 0  -0.9333333333333333 -1.333333333333333 0  -0.8 -1.333333333333333 0  -0.6666666666666667 -1.333333333333333 0  -0.5333333333333334 -1.333333333333333 0  -0.3999999999999999 -1.333333333333333 0  -0.2666666666666666 -1.333333333333333 0  -0.1333333333333333 -1.333333333333333 0  0 -1.333333333333333 0  0.1333333333333333 -1.333333333333333 0  0.2666666666666666 -1.333333333333333 0  0.3999999999999999 -1.333333333333333 0  0.5333333333333332 -1.333333333333333 0  0.6666666666666665 -1.333333333333333 0  0.7999999999999998 -1.333333333333333 0  0.9333333333333331 -1.333333333333333 0  1.066666666666667 -1.333333333333333 0  1.2 -1.333333333333333 0  1.333333333333333 -1.333333333333333 0  1.466666666666667 -1.333333333333333 0  1.6 -1.333333333333333 0  1.733333333333333 -1.333333333333333 0  1.866666666666667 -1.333333333333333 0  2 -1.333333333333333 0  -2 -1.2 0  -1.866666666666667 -1.2 0  -1.733333333333333 -1.2 0  -1.6 -1.2 0  -1.466666666666667 -1.2 0  -1.333333333333333 -1.2 0  -1.2 -1.2 0  -1.066666666666667 -1.2 0  -0.9333333333333333 -1.2 0  -0.8 -1.2 0  -0.6666666666666667 -1.2 0  -0.5333333333333334 -1.2 0  -0.3999999999999999 -1.2 0  -0.2666666666666666 -1.2 0  -0.1333333333333333 -1.2 0  0 -1.2 0  0.1333333333333333 -1.2 0  0.2666666666666666 -1.2 0  0.3999999999999999 -1.2 0  0.5333333333333332 -1.2 0  0.6666666666666665 -1.2 0  0.7999999999999998 -1.2 0  0.9333333333333331 -1.2 0  1.066666666666667 -1.2 0  1.2 -1.2 0  1.333333333333333 -1.2 0  1.466666666666667 -1.2 0  1.6 -1.2 0  1.733333333333333 -1.2 0  1.866666666666667 -1.2 0  2 -1.2 0  -2 -1.066666666666667 0  -1.866666666666667 -1.066666666666667 0  -1.733333333333333 -1.066666666666667 0  -1.6 -1.066666666666667 0  -1.466666666666667 -1.066666666666667 0  -1.333333333333333 -1.066666666666667 0  -1.2 -1.066666666666667 0  -1.066666666666667 -1.066666666666667 0  -0.9333333333333333 -1.066666666666667 0  -0.8 -1.066666666666667 0  -0.6666666666666667 -1.066666666666667 0  -0.5333333333333334 -1.066666666666667 0  -0.3999999999999999 -1.066666666666667 0  -0.2666666666666666 -1.066666666666667 0  -0.1333333333333333 -1.066666666666667 0  0 -1.066666666666667 0  0.1333333333333333 -1.066666666666667 0  0.2666666666666666 -1.066666666666667 0  0.3999999999999999 -1.066666666666667 0  0.5333333333333332 -1.066666666666667 0  0.6666666666666665 -1.066666666666667 0  0.7999999999999998 -1.066666666666667 0  0.9333333333333331 -1.066666666666667 0  1.066666666666667 -1.066666666666667 0  1.2 -1.066666666666667 0  1.333333333333333 -1.066666666666667 0  1.466666666666667 -1.066666666666667 0  1.6 -1.066666666666667 0  1.733333333333333 -1.066666666666667 0  1.866666666666667 -1.066666666666667 0  2 -1.066666666666667 0  -2 -0.9333333333333333 0  -1.866666666666667 -0.9333333333333333 0  -1.733333333333333 -0.9333333333333333 0  -1.6 -0.9333333333333333 0  -1.466666666666667 -0.9333333333333333 0  -1.333333333333333 -0.9333333333333333 0  -1.2 -0.9333333333333333 0  -1.066666666666667 -0.9333333333333333 0  -0.9333333333333333 -0.9333333333333333 0  -0.8 -0.9333333333333333 0  -0.6666666666666667 -0.9333333333333333 0  -0.5333333333333334 -0.9333333333333333 0  -0.3999999999999999 -0.9333333333333333 0  -0.2666666666666666 -0.9333333333333333 0  -0.1333333333333333 -0.9333333333333333 0  0 -0.9333333333333333 0  0.1333333333333333 -0.9333333333333333 0  0.2666666666666666 -0.9333333333333333 0  0.3999999999999999 -0.9333333333333333 0  0.5333333333333332 -0.9333333333333333 0  0.6666666666666665 -0.9333333333333333 0  0.7999999999999998 -0.9333333333333333 0  0.9333333333333331 -0.9333333333333333 0  1.066666666666667 -0.9333333333333333 0  1.2 -0.9333333333333333 0  1.333333333333333 -0.9333333333333333 0  1.466666666666667 -0.9333333333333333 0  1.6 -0.9333333333333333 0  1.733333333333333 -0.9333333333333333 0  1.866666666666667 -0.9333333333333333 0  2 -0.9333333333333333 0  -2 -0.8 0  -1.866666666666667 -0.8 0  -1.733333333333333 -0.8 0  -1.6 -0.8 0  -1.466666666666667 -0.8 0  -1.333333333333333 -0.8 0  -1.2 -0.8 0  -1.066666666666667 -0.8 0  -0.9333333333333333 -0.8 0  -0.8 -0.8 0  -0.6666666666666667 -0.8 0  -0.5333333333333334 -0.8 0  -0.3999999999999999 -0.8 0  -0.2666666666666666 -0.8 0  -0.1333333333333333 -0.8 0  0 -0.8 0  0.1333333333333333 -0.8 0  0.2666666666666666 -0.8 0  0.3999999999999999 -0.8 0  0.5333333333333332 -0.8 0  0.6666666666666665 -0.8 0  0.7999999999999998 -0.8 0  0.9333333333333331 -0.8 0  1.066666666666667 -0.8 0  1.2 -0.8 0  1.333333333333333 -0.8 0  1.466666666666667 -0.8 0  1.6 -0.8 0  1.733333333333333 -0.8 0  1.866666666666667 -0.8 0  2 -0.8 0  -2 -0.6666666666666667 0  -1.866666666666667 -0.
[...]
<PointData  Scalars="f_12"> 
<DataArray  type="Float64"  Name="f_12"  format="ascii">0.0000000000000000e+00  0.0000000000000000e+00  0.0000000000000000e+00  0.0000000000000000e+00  0.0000000000000000e+00  0.0000000000000000e+00  0.0000000000000000e+00  0.0000000000000000e+00  0.0000000000000000e+00  0.0000000000000000e+00  0.0000000000000000e+00  0.0000000000000000e+00  0.0000000000000000e+00  0.0000000000000000e+00  0.0000000000000000e+00  0.0000000000000000e+00  0.0000000000000000e+00  0.0000000000000000e+00  0.0000000000000000e+00  0.0000000000000000e+00  0.0000000000000000e+00  0.0000000000000000e+00  0.0000000000000000e+00  0.0000000000000000e+00  0.0000000000000000e+00  0.0000000000000000e+00  0.0000000000000000e+00  0.0000000000000000e+00  0.0000000000000000e+00  0.0000000000000000e+00  0.0000000000000000e+00  0.0000000000000000e+00  4.8037733170728071e-04  9.5573505107821239e-04  1.4220045217017655e-03  1.8748799622589807e-03  2.3098907710698406e-03  2.7224424085053444e-03  3.1078681336696190e-03  3.4615042690795991e-03  3.7787905878442396e-03  4.0553918130900347e-03  4.2873327425693043e-03  4.4711373432094704e-03  4.6039611388030812e-03  4.6837063093889669e-03  4.7091100766684353e-03  4.6797990356795488e-03  4.5963048989389327e-03  4.4600403695578619e-03  4.2732372375554675e-03  4.0388519714070776e-03  3.7604467496783044e-03  3.4420557937714178e-03  3.0880478515912450e-03  2.7029956766723138e-03  2.2915624093674284e-03  1.8584131299913260e-03  1.4081580597797524e-03  9.4533326095445815e-04  4.7442913200356092e-04  0.0000000000000000e+00  0.0000000000000000e+00  9.5573505107821250e-04  1.9019044275708238e-03  2.8301300973972011e-03  3.7317549829047492e-03  4.5978513073282913e-03  5.4192633984353521e-03  6.1866983542107189e-03  6.8908713067120141e-03  7.5227032762138612e-03  8.0735620695450774e-03  8.5355308108367011e-03  8.9016847032957046e-03  9.1663546890893531e-03  9.3253568918840891e-03  9.3761690296738434e-03  9.3180391327032375e-03  9.1520174819327595e-03  8.8809091518192128e-03  8.5091512675364266e-03  8.0426254193042383e-03  7.4884210062409612e-03  6.8545691045908737e-03  6.1497684228139712e-03  5.3831248683689978e-03  4.5639242819783257e-03  3.7014543128437885e-03  2.8048867942672921e-03  1.8832271694989014e-03  9.4533326095445837e-04  0.0000000000000000e+00  0.0000000000000000e+00  1.4220045217017653e-03  2.8301300973972016e-03  4.2117281567617673e-03  5.5538315230812133e-03  6.8431159301377666e-03  8.0659384774713055e-03  9.2084608198081865e-03  1.0256859730875227e-02  1.1197618704792148e-02  1.2017884980876532e-02  1.2705868469429272e-02  1.3251253448671597e-02  1.3645591153524326e-02  1.3882641741132427e-02  1.3958637552544687e-02  1.3872445757738331e-02  1.3625616771609915e-02  1.3222314454238946e-02  1.2669134124324735e-02  1.1974823849595088e-02  1.1149932423160768e-02  1.0206413133761449e-02  9.1572153625583391e-03  8.0158959431852299e-03  6.7962791650930214e-03  5.5121886380397637e-03  4.1772665525344026e-03  2.8048867942672929e-03  1.4081580597797533e-03  0.0000000000000000e+00  0.0000000000000000e+00  1.8748799622589807e-03  3.7317549829047484e-03  5.5538315230812159e-03  7.3239434445352396e-03  9.0244841221108138e-03  1.0637443658012839e-02  1.2144562771084697e-02  1.3527605332065032e-02  1.4768739850710543e-02  1.5851008526937934e-02  1.6758852424002473e-02  1.7478654124992471e-02  1.7999255695358901e-02  1.8312410283139929e-02  1.8413130219223146e-02  1.8299902605845946e-02  1.7974754320456993e-02  1.7443161054501371e-02  1.6713808221132224e-02  1.5798224021665169e-02  1.4710315455821766e-02  1.3465845591664362e-02  1.2081894270669590e-02  1.0576344268728062e-02  8.9674308131056420e-03  7.2733846863748111e-03  5.5121886380397681e-03  3.7014543128437911e-03  1.8584131299913278e-03  0.0000000000000000e+00  0.0000000000000000e+00  2.3098907710698410e-03  4.5978513073282896e-03  6.8431159301377640e-03  9.0244841221108138e-03  1.1120231497630646e-02  1.3108148871835319e-02  1.4965726219928534e-02  1.6670484361640980e-02  1.8200442210724487e-02  1.9534692960675240e-02  2.0654050259626661e-02  2.1541716622085524e-02  2.2183921993901481e-02  2.2570481016266079e-02  2.2695223105466584e-02  2.2556259462679595e-02  2.2156064596114078e-02  2.1501365575219873e-02  2.0602848527719209e-02  1.9474707256072567e-02  1.8134071806317615e-02  1.6600364126368672e-02  1.4894632723357582e-02  1.3038918036895475e-02  1.1055695134260005e-02  8.9674308131056507e-03  6.7962791650930266e-03  4.5639242819783292e-03  2.2915624093674293e-03  0.0000000000000000e+00  0.0000000000000000e+00  2.7224424085053435e-03  5.4192633984353538e-03  8.0659384774713141e-03  1.0637443658012844e-02  1.3108148871835316e-02  1.5451860475549783e-02  1.7642034345456109e-02  1.9652163638925888e-02  2.1456327117866426e-02  2.3029866676592604e-02  2.4350148132513540e-02  2.5397348935149125e-02  2.6155211323117523e-02  2.6611700175164458e-02  2.6759511340118919e-02  2.6596387990627707e-02  2.6125218404880669e-02  2.5353907009241321e-02  2.4295029727424932e-02  2.2965302816599999e-02  2.1384909674633811e-02  1.9576741105750636e-02  1.7565610191054740e-02  1.5377502708505532e-02  1.3038918036895478e-02  1.0576344268728067e-02  8.0158959431852316e-03  5.3831248683689987e-03  2.7029956766723138e-03  0.0000000000000000e+00  0.0000000000000000e+00  3.1078681336696211e-03  6.1866983542107224e-03  9.2084608198081987e-03  1.2144562771084706e-02  1.4965726219928539e-02  1.7642034345456113e-02  2.0143172125574812e-02  2.2438866491536345e-02  2.4499510248688926e-02  2.6296934134874411e-02  2.7805274638107023e-02  2.9001873253508267e-02  2.9868136954934697e-02  3.0390290426899735e-02  3.0559958024860411e-02  3.0374526823989910e-02  2.9837260201637759e-02  2.8957152432954433e-02  2.7748536725418081e-02  2.6230479849243590e-02  2.4426014032380525e-02  2.2361269398001475e-02  2.0064576732777870e-02  1.7565610191054765e-02  1.4894632723357594e-02  1.2081894270669585e-02  9.1572153625583338e-03  6.1497684228139704e-03  3.0880478515912446e-03  0.0000000000000000e+00  0.0000000000000000e+00  3.4615042690796039e-03  6.8908713067120228e-03  1.0256859730875248e-02  1.3527605332065054e-02  1.6670484361640987e-02  1.9652163638925902e-02  2.2438866491536341e-02  2.4996860902255790e-02  2.7293152656498013e-02  2.9296344028672216e-02  3.0977599792702579e-02  3.2311648961278520e-02  3.3277744011490695e-02  3.3860500149084802e-02  3.4050545376440505e-02  3.3844927003900037e-02  3.3247240362316195e-02  3.2267468897102088e-02  3.0921549282364506e-02  2.9230698317364381e-02  2.7220557920389597e-02  2.4920228637547198e-02  2.2361269398001468e-02  1.9576741105750632e-02  1.6600364126368679e-02  1.3465845591664359e-02  1.0206413133761440e-02  6.8545691045908720e-03  3.4420557937714169e-03  0.0000000000000000e+00  0.0000000000000000e+00  3.7787905878442457e-03  7.5227032762138751e-03  1.1197618704792177e-02  1.4768739850710595e-02  1.8200442210724525e-02  2.1456327117866453e-02  2.4499510248688943e-02  2.7293152656498020e-02  2.9801215863212802e-02  3.1989398165676641e-02  3.3826188756288893e-02  3.5283961568268400e-02  3.6340023420516850e-02  3.6977531831153002e-02  3.7186206771161724e-02  3.6962776819087363e-02  3.6311122110810438e-02  3.5242102040757242e-02  3.3773082386995272e-02  3.1927201813136782e-02  2.9732439099820634e-02  2.7220557920389632e-02  2.4426014032380539e-02  2.1384909674633818e-02  1.8134071806317643e-02  1.4710315455821778e-02  1.1149932423160784e-02  7.4884210062409673e-03  3.7604467496783092e-03  0.0000000000000000e+00  0.0000000000000000e+00  4.0553918130900408e-03  8.0735620695450913e-03  1.2017884980876564e-02  1.5851008526937972e-02  1.9534692960675299e-02  2.3029866676592653e-02  2.6296934134874436e-02  2.9296344028672233e-02  3.1989398165676662e-02  3.4339255318783971e-02  3.6312062168059031e-02  3.7878127610736702e-02  3.9013048760524437e-02  3.9698697729941043e-02  3.9923987773435705e-02  3.9685354689468530e-02  3.8986912885282256e-02  3.7840272932892688e-02  3.6264036133199500e-02  3.4283008776414575e-02  3.1927201813136831e-02  2.9230698317364461e-02  2.6230479849243642e-02  2.2965302816600044e-02  1.9474707256072608e-02  1.5798224021665200e-02  1.1974823849595105e-02  8.0426254193042557e-03  4.0388519714070871e-03  0.0000000000000000e+00  0.0000000000000000e+00  4.2873327425693095e-03  8.5355308108367115e-03  1.2705868469429291e-02  1.6758852424002491e-02  2.0654050259626713e-02  2.4350148132513596e-02  2.7805274638107041e-02  3.0977599792702589e-02  3.3826188756288914e-02  3.6312062168059045e-02  3.8399391503918918e-02  4.0056741035228764e-02  4.1258259472381140e-02  4.1984725109494740e-02  4.2224358238027879e-02  4.1973332849630861e-02  4.1235944462227864e-02  4.0024419886489103e-02  3.8358385096105653e-02  3.6264036133199541e-02  3.3773082386995355e-02  3.0921549282364662e-02  2.7748536725418143e-02  2.4295029727425005e-02  2.0602848527719275e-02  1.6713808221132272e-02  1.2669134124324770e-02  8.5091512675364508e-03  4.2732372375554797e-03  0.0000000000000000e+00  0.0000000000000000e+00  4.4711373432094722e-03  8.9016847032957046e-03  1.3251253448671610e-02  1.7478654124992481e-02  2.1541716622085549e-02  2.5397348935149149e-02  2.9001873253508278e-02  3.2311648961278534e-02  3.5283961568268414e-02  3.7878127610736723e-02  4.0056741035228757e-02  4.1786968950540938e-02  4.3041795686847892e-02  4.3801114778313770e-02  4.4052578785185779e-02  4.3792135844394675e-02  4.3024207676239642e-02  4.1761493988856299e-02  4.0024419886489082e-02  3.7840272932892736e-02  3.5242102040757319e-02  3.2267468897102206e-02  2.8957152432954516e-02  2.5353907009241384e-02  2.1501365575219953e-02  1.7443161054501423e-02  1.3222314454238987e-02  8.8809091518192388e-03  4.4600403695578723e-03  0.0000000000000000e+00  0.0000000000000000e+00  4.6039611388030838e-03  9.1663546890893514e-03  1.3645591153524319e-02  1.7999255695358894e-02  2.2183921993901474e-02  2.6155211323117527e-02  2.9868136954934687e-02  3.3277744011490716e-02  3.6340023420516850e-02  3.9013048760524457e-02  4.1258259472381174e-02  4.3041795686847836e-02  4.4335780619239137e-02  4.5119447091155090e-02  4.5380015263851874e-02  4.5113248139834944e-02  4.4323637954243773e-02  4.3024207676239663e-02  4.1235944462227891e-02  3.8986912885282304e-02  3.6311122110810543e-02  3.3247240362316285e-02  2.9837260201637811e-02  2.6125218404880732e-02  2.2156064596114144e-02  1.7974754320457045e-02  1.3625616771609958e-02  9.1520174819327872e-03  4.5963048989389500e-03  0.0000000000000000e+00  0.0000000000000000e+00  4.6837063093889686e-03  9.3253568918840856e-03  1.3882641741132405e-02  1.8312410283139919e-02  2.2570481016266047e-02  2.6611700175164458e-02  3.0390290426899745e-02  3.3860500149084809e-02  3.6977531831152974e-02  3.9698697729941050e-02  4.1984725109494775e-02  4.3801114778313784e-02  4.5119447091155118e-02  4.5918530112240730e-02  4.6185295260972675e-02  4.5915365504023600e-02  4.5113248139834979e-02  4.3792135844394710e-02  4.1973332849630937e-02  3.9685354689468592e-02  3.6962776819087446e-02  3.3844927003900127e-02  3.0374526823989997e-02  2.6596387990627773e-02  2.2556259462679654e-02  1.8299902605845995e-02  1.3872445757738366e-02  9.3180391327032635e-03  4.6797990356795644e-03  0.0000000000000000e+00  0.0000000000000000e+00  4.7091100766684406e-03  9.3761690296738556e-03  1.3958637552544690e-02  1.8413130219223150e-02  2.2695223105466570e-02  2.6759511340118933e-02  3.0559958024860421e-02  3.4050545376440505e-02  3.7186206771161724e-02  3.9923987773435726e-02  4.2224358238027941e-02  4.4052578785185835e-02  4.5380015263851908e-02  4.6185295260972654e-02  4.6455211313390331e-02  4.6185295260972641e-02  4.5380015263851881e-02  4.4052578785185800e-02  4.2224358238027913e-02  3.9923987773435726e-02  3.7186206771161794e-02  3.4050545376440609e-02  3.0559958024860504e-02  2.6759511340118985e-02  2.2695223105466632e-02  1.8413130219223198e-02  1.3958637552544725e-02  9.3761690296738694e-03  4.7091100766684501e-03  0.0000000000000000e+00  0.0000000000000000e+00  4.6797990356795566e-03  9.3180391327032496e-03  1.3872445757738350e-02  1.8299902605845967e-02  2.2556259462679619e-02  2.6596387990627742e-02  3.0374526823989934e-02  3.3844927003900058e-02  3.6962776819087419e-02  3.9685354689468606e-02  4.1973332849630965e-02  4.3792135844394751e-02  4.5113248139835020e-02  4.5915365504023607e-02  4.6185295260972668e-02  4.5918530112240723e-02  4.5119447091155063e-02  4.3801114778313756e-02  4.1984725109494754e-02  3.9698697729941071e-02  3.6977531831153057e-02  3.3860500149084885e-02  3.0390290426899821e-02  2.6611700175164513e-02  2.2570481016266124e-02  1.8312410283139971e-02  1.3882641741132453e-02  9.3253568918841116e-03  4.6837063093889799e-03  0.0000000000000000e+00  0.0000000000000000e+00  4.5963048989389422e-03  9.1520174819327751e-03  1.3625616771609939e-02  1.7974754320457042e-02  2.2156064596114133e-02  2.6125218404880711e-02  2.9837260201637777e-02  3.3247240362316237e-02  3.6311122110810487e-02  3.8986912885282339e-02  4.1235944462227933e-02  4.3024207676239698e-02  4.4323637954243822e-02  4.5113248139835027e-02  4.5380015263851908e-02  4.5119447091155097e-02  4.4335780619239124e-02  4.3041795686847871e-02  4.1258259472381147e-02  3.9013048760524492e-02  3.6340023420516898e-02  3.3277744011490779e-02  2.9868136954934732e-02  2.6155211323117562e-02  2.2183921993901522e-02  1.7999255695358932e-02  1.3645591153524346e-02  9.1663546890893739e-03  4.6039611388030968e-03  0.0000000000000000e+00  0.0000000000000000e+00  4.4600403695578697e-03  8.8809091518192284e-03  1.3222314454238970e-02  1.7443161054501412e-02  2.1501365575219946e-02  2.5353907009241377e-02  2.8957152432954474e-02  3.2267468897102143e-02  3.5242102040757284e-02  3.7840272932892750e-02  4.0024419886489145e-02  4.1761493988856362e-02  4.3024207676239719e-02  4.3792135844394738e-02  4.4052578785185814e-02  4.3801114778313756e-02  4.3041795686847878e-02  4.1786968950540966e-02  4.0056741035228750e-02  3.7878127610736737e-02  3.5283961568268421e-02  3.2311648961278569e-02  2.9001873253508323e-02  2.5397348935149170e-02  2.1541716622085573e-02  1.7478654124992506e-02  1.3251253448671630e-02  8.9016847032957272e-03  4.4711373432094843e-03  0.0000000000000000e+00  0.0000000000000000e+00  4.2732372375554753e-03  8.5091512675364456e-03  1.2669134124324763e-02  1.6713808221132262e-02  2.0602848527719268e-02  2.4295029727425005e-02  2.7748536725418119e-02  3.0921549282364565e-02  3.3773082386995334e-02  3.6264036133199541e-02  3.8358385096105688e-02  4.0024419886489131e-02  4.1235944462227912e-02  4.1973332849630937e-02  4.2224358238027920e-02  4.1984725109494726e-02  4.1258259472381119e-02  4.0056741035228736e-02  3.8399391503918912e-02  3.6312062168059073e-02  3.3826188756288934e-02  3.0977599792702610e-02  2.7805274638107062e-02  2.4350148132513596e-02  2.0654050259626706e-02  1.6758852424002511e-02  1.2705868469429303e-02  8.5355308108367254e-03  4.2873327425693199e-03  0.0000000000000000e+00  0.0000000000000000e+00  4.0388519714070897e-03  8.0426254193042626e-03  1.1974823849595126e-02  1.5798224021665211e-02  1.9474707256072629e-02  2.2965302816600058e-02  2.6230479849243631e-02  2.9230698317364436e-02  3.1927201813136838e-02  3.4283008776414617e-02  3.6264036133199562e-02  3.7840272932892764e-02  3.8986912885282284e-02  3.9685354689468579e-02  3.9923987773435712e-02  3.9698697729941050e-02  3.9013048760524437e-02  3.7878127610736730e-02  3.6312062168059080e-02  3.4339255318784047e-02  3.1989398165676711e-02  2.9296344028672271e-02  2.6296934134874460e-02  2.3029866676592667e-02  1.9534692960675309e-02  1.5851008526937993e-02  1.2017884980876567e-02  8.0735620695451035e-03  4.0553918130900504e-03  0.0000000000000000e+00  0.0000000000000000e+00  3.7604467496783161e-03  7.4884210062409863e-03  1.1149932423160811e-02  1.4710315455821809e-02  1.8134071806317664e-02  2.1384909674633853e-02  2.4426014032380556e-02  2.7220557920389628e-02  2.9732439099820672e-02  3.1927201813136873e-02  3.3773082386995362e-02  3.5242102040757339e-02  3.6311122110810522e-02  3.6962776819087405e-02  3.7186206771161752e-02  3.6977531831153015e-02  3.6340023420516850e-02  3.5283961568268463e-02  3.3826188756288969e-02  3.1989398165676766e-02  2.9801215863212913e-02  2.7293152656498142e-02  2.4499510248689012e-02  2.1456327117866495e-02  1.8200442210724557e-02  1.4768739850710630e-02  1.1197618704792193e-02  7.5227032762138907e-03  3.7787905878442565e-03  0.0000000000000000e+00  0.0000000000000000e+00  3.4420557937714282e-03  6.8545691045908954e-03  1.0206413133761480e-02  1.3465845591664400e-02  1.6600364126368724e-02  1.9576741105750684e-02  2.2361269398001524e-02  2.4920228637547236e-02  2.7220557920389649e-02  2.9230698317364481e-02  3.0921549282364631e-02  3.2267468897102199e-02  3.3247240362316278e-02  3.3844927003900092e-02  3.4050545376440582e-02  3.3860500149084864e-02  3.3277744011490751e-02  3.2311648961278576e-02  3.0977599792702645e-02  2.9296344028672337e-02  2.7293152656498183e-02  2.4996860902255932e-02  2.2438866491536459e-02  1.9652163638925996e-02  1.6670484361641057e-02  1.3527605332065096e-02  1.0256859730875270e-02  6.8908713067120445e-03  3.4615042690796165e-03  0.0000000000000000e+00  0.0000000000000000e+00  3.0880478515912541e-03  6.1497684228139895e-03  9.1572153625583668e-03  1.2081894270669621e-02  1.4894632723357634e-02  1.7565610191054803e-02  2.0064576732777919e-02  2.2361269398001506e-02  2.4426014032380563e-02  2.6230479849243652e-02  2.7748536725418139e-02  2.8957152432954488e-02  2.9837260201637794e-02  3.0374526823989962e-02  3.0559958024860466e-02  3.0390290426899790e-02  2.9868136954934749e-02  2.9001873253508319e-02  2.7805274638107103e-02  2.6296934134874522e-02  2.4499510248689058e-02  2.2438866491536473e-02  2.0143172125574919e-02  1.7642034345456203e-02  1.4965726219928595e-02  1.2144562771084744e-02  9.2084608198082230e-03  6.1866983542107372e-03  3.1078681336696298e-03  0.0000000000000000e+00  0.0000000000000000e+00  2.7029956766723207e-03  5.3831248683690108e-03  8.0158959431852542e-03  1.0576344268728093e-02  1.3038918036895513e-02  1.5377502708505570e-02  1.7565610191054785e-02  1.9576741105750649e-02  2.1384909674633835e-02  2.2965302816600051e-02  2.4295029727425008e-02  2.5353907009241380e-02  2.6125218404880739e-02  2.6596387990627766e-02  2.6759511340118967e-02  2.6611700175164503e-02  2.6155211323117582e-02  2.5397348935149184e-02  2.4350148132513634e-02  2.3029866676592715e-02  2.1456327117866544e-02  1.9652163638926013e-02  1.7642034345456224e-02  1.5451860475549866e-02  1.3108148871835361e-02  1.0637443658012875e-02  8.0659384774713367e-03  5.4192633984353695e-03  2.7224424085053518e-03  0.0000000000000000e+00  0.0000000000000000e+00  2.2915624093674336e-03  4.5639242819783387e-03  6.7962791650930388e-03  8.9674308131056629e-03  1.1055695134260029e-02  1.3038918036895506e-02  1.4894632723357610e-02  1.6600364126368689e-02  1.8134071806317629e-02  1.9474707256072601e-02  2.0602848527719254e-02  2.1501365575219950e-02  2.2156064596114147e-02  2.2556259462679654e-02  2.2695223105466612e-02  2.2570481016266120e-02  2.2183921993901543e-02  2.1541716622085587e-02  2.0654050259626744e-02  1.9534692960675355e-02  1.8200442210724609e-02  1.6670484361641098e-02  1.4965726219928623e-02  1.3108148871835382e-02  1.1120231497630688e-02  9.0244841221108450e-03  6.8431159301377891e-03  4.5978513073283026e-03  2.3098907710698462e-03  0.0000000000000000e+00  0.0000000000000000e+00  1.8584131299913312e-03  3.7014543128437993e-03  5.5121886380397793e-03  7.2733846863748232e-03  8.9674308131056629e-03  1.0576344268728086e-02  1.2081894270669599e-02  1.3465845591664364e-02  1.4710315455821778e-02  1.5798224021665197e-02  1.6713808221132258e-02  1.7443161054501416e-02  1.7974754320457038e-02  1.8299902605845977e-02  1.8413130219223167e-02  1.8312410283139961e-02  1.7999255695358943e-02  1.7478654124992523e-02  1.6758852424002536e-02  1.5851008526938024e-02  1.4768739850710673e-02  1.3527605332065134e-02  1.2144562771084768e