<?xml version="1.0"?>
<VTKFile type="UnstructuredGrid"  version="0.1"  >
<UnstructuredGrid>
<Piece  NumberOfPoints="961" NumberOfCells="1800">
<Points>
<DataArray  type="Float64"  NumberOfComponents="3"  format="ascii">-2 -2 0  -1.866666666666667 -2 0  -1.733333333333333 -2 0  -1.6 -2 0  -1.466666666666667 -2 0  -1.333333333333333 -2 0  -1.2 -2 0  -1.066666666666667 -2 0  -0.9333333333333333 -2 0  -0.8 -2 0  -0.6666666666666667 -2 0  -0.5333333333333334 -2 0  -0.3999999999999999 -2 0  -0.2666666666666666 -2 0  -0.1333333333333333 -2 0  0 -2 0  0.1333333333333333 -2 0  0.2666666666666666 -2 0  0.3999999999999999 -2 0  0.5333333333333332 -2 0  0.6666666666666665 -2 0  0.7999999999999998 -2 0  0.9333333333333331 -2 0  1.066666666666667 -2 0  1.2 -2 0  1.333333333333333 -2 0  1.466666666666667 -2 0  1.6 -2 0  1.733333333333333 -2 0  1.866666666666667 -2 0  2 -2 0  -2 -1.866666666666667 0  -1.866666666666667 -1.866666666666667 0  -1.733333333333333 -1.866666666666667 0  -1.6 -1.866666666666667 0  -1.466666666666667 -1.866666666666667 0  -1.333333333333333 -1.866666666666667 0  -1.2 -1.866666666666667 0  -1.066666666666667 -1.866666666666667 0  -0.9333333333333333 -1.866666666666667 0  -0.8 -1.866666666666667 0  -0.6666666666666667 -1.866666666666667 0  -0.5333333333333334 -1.866666666666667 0  -0.3999999999999999 -1.866666666666667 0  -0.2666666666666666 -1.866666666666667 0  -0.1333333333333333 -1.866666666666667 0  0 -1.866666666666667 0  0.1333333333333333 -1.866666666666667 0  0.2666666666666666 -1.866666666666667 0  0.3999999999999999 -1.866666666666667 0  0.5333333333333332 -1.866666666666667 0  0.6666666666666665 -1.866666666666667 0  0.7999999999999998 -1.866666666666667 0  0.9333333333333331 -1.866666666666667 0  1.066666666666667 -1.866666666666667 0  1.2 -1.866666666666667 0  1.333333333333333 -1.866666666666667 0  1.466666666666667 -1.866666666666667 0  1.6 -1.866666666666667 0  1.733333333333333 -1.866666666666667 0  1.866666666666667 -1.866666666666667 0  2 -1.866666666666667 0  -2 -1.733333333333333 0  -1.866666666666667 -1.733333333333333 0  -1.733333333333333 -1.733333333333333 0  -1.6 -1.733333333333333 0  -1.466666666666667 -1.733333333333333 0  -1.333333333333333 -1.733333333333333 0  -1.2 -1.733333333333333 0  -1.066666666666667 -1.733333333333333 0  -0.9333333333333333 -1.733333333333333 0  -0.8 -1.733333333333333 0  -0.6666666666666667 -1.733333333333333 0  -0.5333333333333334 -1.733333333333333 0  -0.3999999999999999 -1.733333333333333 0  -0.2666666666666666 -1.733333333333333 0  -0.1333333333333333 -1.733333333333333 0  0 -1.733333333333333 0  0.1333333333333333 -1.733333333333333 0  0.2666666666666666 -1.733333333333333 0  0.3999999999999999 -1.733333333333333 0  0.5333333333333332 -1.733333333333333 0  0.6666666666666665 -1.733333333333333 0  0.7999999999999998 -1.733333333333333 0  0.9333333333333331 -1.733333333333333 0  1.066666666666667 -1.733333333333333 0  1.2 -1.733333333333333 0  1.333333333333333 -1.733333333333333 0  1.466666666666667 -1.733333333333333 0  1.6 -1.733333333333333 0  1.733333333333333 -1.733333333333333 0  1.866666666666667 -1.733333333333333 0  2 -1.733333333333333 0  -2 -1.6 0  -1.866666666666667 -1.6 0  -1.733333333333333 -1.6 0  -1.6 -1.6 0  -1.466666666666667 -1.6 0  -1.333333333333333 -1.6 0  -1.2 -1.6 0  -1.066666666666667 -1.6 0  -0.9333333333333333 -1.6 0  -0.8 -1.6 0  -0.6666666666666667 -1.6 0  -0.5333333333333334 -1.6 0  -0.3999999999999999 -1.6 0  -0.2666666666666666 -1.6 0  -0.1333333333333333 -1.6 0  0 -1.6 0  0.1333333333333333 -1.6 0  0.2666666666666666 -1.6 0  0.3999999999999999 -1.6 0  0.5333333333333332 -1.6 0  0.6666666666666665 -1.6 0  0.7999999999999998 -1.6 0  0.9333333333333331 -1.6 0  1.066666666666667 -1.6 0  1.2 -1.6 0  1.333333333333333 -1.6 0  1.466666666666667 -1.6 0  1.6 -1.6 0  1.733333333333333 -1.6 0  1.866666666666667 -1.6 0  2 -1.6 0  -2 -1.466666666666667 0  -1.866666666666667 -1.466666666666667 0  -1.733333333333333 -1.466666666666667 0  -1.6 -1.466666666666667 0  -1.466666666666667 -1.466666666666667 0  -1.333333333333333 -1.466666666666667 0  -1.2 -1.466666666666667 0  -1.066666666666667 -1.466666666666667 0  -0.9333333333333333 -1.466666666666667 0  -0.8 -1.466666666666667 0  -0.6666666666666667 -1.466666666666667 0  -0.5333333333333334 -1.466666666666667 0  -0.3999999999999999 -1.466666666666667 0  -0.2666666666666666 -1.466666666666667 0  -0.1333333333333333 -1.466666666666667 0  0 -1.466666666666667 0  0.1333333333333333 -1.466666666666667 0  0.2666666666666666 -1.466666666666667 0  0.3999999999999999 -1.466666666666667 0  0.5333333333333332 -1.466666666666667 0  0.6666666666666665 -1.466666666666667 0  0.7999999999999998 -1.466666666666667 0  0.9333333333333331 -1.466666666666667 0  1.066666666666667 -1.466666666666667 0  1.2 -1.466666666666667 0  1.333333333333333 -1.466666666666667 0  1.466666666666667 -1.466666666666667 0  1.6 -1.466666666666667 0  1.733333333333333 -1.466666666666667 0  1.866666666666667 -1.466666666666667 0  2 -1.466666666666667 0  -2 -1.333333333333333 0  -1.866666666666667 -1.333333333333333 0  -1.733333333333333 -1.333333333333333 0  -1.6 -1.333333333333333 0  -1.466666666666667 -1.333333333333333 0  -1.333333333333333 -1.333333333333333 0  -1.2 -1.333333333333333 0  -1.066666666666667 -1.333333333333333 0  -0.9333333333333333 -1.333333333333333 0  -0.8 -1.333333333333333 0  -0.6666666666666667 -1.333333333333333 0  -0.5333333333333334 -1.333333333333333 0  -0.3999999999999999 -1.333333333333333 0  -0.2666666666666666 -1.333333333333333 0  -0.1333333333333333 -1.333333333333333 0  0 -1.333333333333333 0  0.1333333333333333 -1.333333333333333 0  0.2666666666666666 -1.333333333333333 0  0.3999999999999999 -1.333333333333333 0  0.5333333333333332 -1.333333333333333 0  0.6666666666666665 -1.333333333333333 0  0.7999999999999998 -1.333333333333333 0  0.9333333333333331 -1.333333333333333 0  1.066666666666667 -1.333333333333333 0  1.2 -1.333333333333333 0  1.333333333333333 -1.333333333333333 0  1.466666666666667 -1.333333333333333 0  1.6 -1.333333333333333 0  1.733333333333333 -1.333333333333333 0  1.866666666666667 -1.333333333333333 0  2 -1.333333333333333 0  -2 -1.2 0  -1.866666666666667 -1.2 0  -1.733333333333333 -1.2 0  -1.6 -1.2 0  -1.466666666666667 -1.2 0  -1.333333333333333 -1.2 0  -1.2 -1.2 0  -1.066666666666667 -1.2 0  -0.9333333333333333 -1.2 0  -0.8 -1.2 0  -0.6666666666666667 -1.2 0  -0.5333333333333334 -1.2 0  -0.3999999999999999 -1.2 0  -0.2666666666666666 -1.2 0  -0.1333333333333333 -1.2 0  0 -1.2 0  0.1333333333333333 -1.2 0  0.2666666666666666 -1.2 0  0.3999999999999999 -1.2 0  0.5333333333333332 -1.2 0  0.6666666666666665 -1.2 0  0.7999999999999998 -1.2 0  0.9333333333333331 -1.2 0  1.066666666666667 -1.2 0  1.2 -1.2 0  1.333333333333333 -1.2 0  1.466666666666667 -1.2 0  1.6 -1.2 0  1.733333333333333 -1.2 0  1.866666666666667 -1.2 0  2 -1.2 0  -2 -1.066666666666667 0  -1.866666666666667 -1.066666666666667 0  -1.733333333333333 -1.066666666666667 0  -1.6 -1.066666666666667 0  -1.466666666666667 -1.066666666666667 0  -1.333333333333333 -1.066666666666667 0  -1.2 -1.066666666666667 0  -1.066666666666667 -1.066666666666667 0  -0.9333333333333333 -1.066666666666667 0  -0.8 -1.066666666666667 0  -0.6666666666666667 -1.066666666666667 0  -0.5333333333333334 -1.066666666666667 0  -0.3999999999999999 -1.066666666666667 0  -0.2666666666666666 -1.066666666666667 0  -0.1333333333333333 -1.066666666666667 0  0 -1.066666666666667 0  0.1333333333333333 -1.066666666666667 0  0.2666666666666666 -1.066666666666667 0  0.3999999999999999 -1.066666666666667 0  0.5333333333333332 -1.066666666666667 0  0.6666666666666665 -1.066666666666667 0  0.7999999999999998 -1.066666666666667 0  0.9333333333333331 -1.066666666666667 0  1.066666666666667 -1.066666666666667 0  1.2 -1.066666666666667 0  1.333333333333333 -1.066666666666667 0  1.466666666666667 -1.066666666666667 0  1.6 -1.066666666666667 0  1.733333333333333 -1.066666666666667 0  1.866666666666667 -1.066666666666667 0  2 -1.066666666666667 0  -2 -0.9333333333333333 0  -1.866666666666667 -0.9333333333333333 0  -1.733333333333333 -0.9333333333333333 0  -1.6 -0.9333333333333333 0  -1.466666666666667 -0.9333333333333333 0  -1.333333333333333 -0.9333333333333333 0  -1.2 -0.9333333333333333 0  -1.066666666666667 -0.9333333333333333 0  -0.9333333333333333 -0.9333333333333333 0  -0.8 -0.9333333333333333 0  -0.6666666666666667 -0.9333333333333333 0  -0.5333333333333334 -0.9333333333333333 0  -0.3999999999999999 -0.9333333333333333 0  -0.2666666666666666 -0.9333333333333333 0  -0.1333333333333333 -0.9333333333333333 0  0 -0.9333333333333333 0  0.1333333333333333 -0.9333333333333333 0  0.2666666666666666 -0.9333333333333333 0  0.3999999999999999 -0.9333333333333333 0  0.5333333333333332 -0.9333333333333333 0  0.6666666666666665 -0.9333333333333333 0  0.7999999999999998 -0.9333333333333333 0  0.9333333333333331 -0.9333333333333333 0  1.066666666666667 -0.9333333333333333 0  1.2 -0.9333333333333333 0  1.333333333333333 -0.9333333333333333 0  1.466666666666667 -0.9333333333333333 0  1.6 -0.9333333333333333 0  1.733333333333333 -0.9333333333333333 0  1.866666666666667 -0.9333333333333333 0  2 -0.9333333333333333 0  -2 -0.8 0  -1.866666666666667 -0.8 0  -1.733333333333333 -0.8 0  -1.6 -0.8 0  -1.466666666666667 -0.8 0  -1.333333333333333 -0.8 0  -1.2 -0.8 0  -1.066666666666667 -0.8 0  -0.9333333333333333 -0.8 0  -0.8 -0.8 0  -0.6666666666666667 -0.8 0  -0.5333333333333334 -0.8 0  -0.3999999999999999 -0.8 0  -0.2666666666666666 -0.8 0  -0.1333333333333333 -0.8 0  0 -0.8 0  0.1333333333333333 -0.8 0  0.2666666666666666 -0.8 0  0.3999999999999999 -0.8 0  0.5333333333333332 -0.8 0  0.6666666666666665 -0.8 0  0.7999999999999998 -0.8 0  0.9333333333333331 -0.8 0  1.066666666666667 -0.8 0  1.2 -0.8 0  1.333333333333333 -0.8 0  1.466666666666667 -0.8 0  1.6 -0.8 0  1.733333333333333 -0.8 0  1.866666666666667 -0.8 0  2 -0.8 0  -2 -0.6666666666666667 0  -1.866666666666667 -0.
[...]
<PointData  Scalars="f_12"> 
<DataArray  type="Float64"  Name="f_12"  format="ascii">0.0000000000000000e+00  0.0000000000000000e+00  0.0000000000000000e+00  0.0000000000000000e+00  0.0000000000000000e+00  0.0000000000000000e+00  0.0000000000000000e+00  0.0000000000000000e+00  0.0000000000000000e+00  0.0000000000000000e+00  0.0000000000000000e+00  0.0000000000000000e+00  0.0000000000000000e+00  0.0000000000000000e+00  0.0000000000000000e+00  0.0000000000000000e+00  0.0000000000000000e+00  0.0000000000000000e+00  0.0000000000000000e+00  0.0000000000000000e+00  0.0000000000000000e+00  0.0000000000000000e+00  0.0000000000000000e+00  0.0000000000000000e+00  0.0000000000000000e+00  0.0000000000000000e+00  0.0000000000000000e+00  0.0000000000000000e+00  0.0000000000000000e+00  0.0000000000000000e+00  0.0000000000000000e+00  0.0000000000000000e+00  5.8719378525631349e-04  1.1721341182687327e-03  1.7525677617746867e-03  2.3253522095691044e-03  2.8862268026987946e-03  3.4296817127959598e-03  3.9489643298140720e-03  4.4362353992293581e-03  4.8828682376077471e-03  5.2798684644412529e-03  5.6183786031252982e-03  5.8902224219778447e-03  6.0884388767758315e-03  6.2077555396351600e-03  6.2449565356001054e-03  6.1991097956583946e-03  6.0716318903166148e-03  5.8661844267671182e-03  5.5884123085759435e-03  5.2455493395398133e-03  4.8459291160780522e-03  4.3984476373226467e-03  3.9120277781474555e-03  3.3951344689329651e-03  2.8553834094691669e-03  2.2992762277564451e-03  1.7320824680339647e-03  1.1578755398212680e-03  5.7971905270785883e-04  0.0000000000000000e+00  0.0000000000000000e+00  1.1721341182687319e-03  2.3398834250551118e-03  3.4986454272366322e-03  4.6421298169318616e-03  5.7618407028275842e-03  6.8467967217894039e-03  7.8835366374461775e-03  8.8564271894050021e-03  9.7482578704758908e-03  1.0541077139566726e-02  1.1217198866752851e-02  1.1760288954305460e-02  1.2156432042489364e-02  1.2395078182217087e-02  1.2469779529629266e-02  1.2378646585735776e-02  1.2124480318337879e-02  1.1714567867636678e-02  1.1160162127328012e-02  1.0475695853122961e-02  9.6778059052512813e-03  8.7842602579167126e-03  7.8128879136173199e-03  6.7806093285397604e-03  5.7026529610568703e-03  4.5920236529872248e-03  3.4592630859963777e-03  2.3125144220577341e-03  1.1578755398212687e-03  0.0000000000000000e+00  0.0000000000000000e+00  1.7525677617746863e-03  3.4986454272366344e-03  5.2312914568293399e-03  6.9410935212464494e-03  8.6153650454167414e-03  1.0237712021289539e-02  1.1788033257254830e-02  1.3242975459419168e-02  1.4576818912815669e-02  1.5762725391429852e-02  1.6774241817711186e-02  1.7586925064016840e-02  1.8179938224461636e-02  1.8537468536822005e-02  1.8649832226134439e-02  1.8514160548498249e-02  1.8134601340190539e-02  1.7522017254931528e-02  1.6693210635025921e-02  1.5669750437672370e-02  1.4476514066365954e-02  1.3140082549076960e-02  1.1687138854992044e-02  1.0143015452461528e-02  8.5305193029851061e-03  6.8691326145076141e-03  5.1746491907032526e-03  3.4592630859963799e-03  1.7320824680339662e-03  0.0000000000000000e+00  0.0000000000000000e+00  2.3253522095691040e-03  4.6421298169318590e-03  6.9410935212464485e-03  9.2097608835501471e-03  1.1431324279067481e-02  1.3584064660608776e-02  1.5641343699365727e-02  1.7572201510362519e-02  1.9342527292945159e-02  2.0916712085864850e-02  2.2259642444832167e-02  2.3338856524842033e-02  2.4126663957228400e-02  2.4602030561585463e-02  2.4752048797843016e-02  2.4572853216700462e-02  2.4069893190359459e-02  2.3257537384387510e-02  2.2158049181326800e-02  2.0800032717968236e-02  1.9216499019347529e-02  1.7442735850521435e-02  1.5514180141823007e-02  1.3464487083553309e-02  1.1323966283826235e-02  9.1185156843135249e-03  6.8691326145076167e-03  4.5920236529872266e-03  2.2992762277564472e-03  0.0000000000000000e+00  0.0000000000000000e+00  2.8862268026987950e-03  5.7618407028275807e-03  8.6153650454167327e-03  1.1431324279067475e-02  1.4188890166390401e-02  1.6861144425345413e-02  1.9415060738764468e-02  2.1812239881730786e-02  2.4010357479450795e-02  2.5965211885442128e-02  2.7633197152038474e-02  2.8973979654414752e-02  2.9953131828357921e-02  3.0544475845027366e-02  3.0731914499269403e-02  3.0510574024098677e-02  2.9887149254190230e-02  2.8879418718002366e-02  2.7514977674332201e-02  2.5829312289772099e-02  2.3863400198554797e-02  2.1661065293222530e-02  1.9266333730605007e-02  1.6721032411698530e-02  1.4062841877495650e-02  1.1323966283826243e-02  8.5305193029851130e-03  5.7026529610568746e-03  2.8553834094691708e-03  0.0000000000000000e+00  0.0000000000000000e+00  3.4296817127959611e-03  6.8467967217894039e-03  1.0237712021289537e-02  1.3584064660608776e-02  1.6861144425345410e-02  2.0037008660673830e-02  2.3072452433818537e-02  2.5921874665791364e-02  2.8534992573576126e-02  3.0859271159763096e-02  3.2842860122076295e-02  3.4437775248472358e-02  3.5603031311689667e-02  3.6307432462191508e-02  3.6531754925590902e-02  3.6270112975846973e-02  3.5530377117101865e-02  3.4333605073025221e-02  3.2712541853612054e-02  3.0709334692495080e-02  2.8372682632996110e-02  2.5754691462232082e-02  2.2907727715150650e-02  1.9881558900167001e-02  1.6721032411698537e-02  1.3464487083553319e-02  1.0143015452461534e-02  6.7806093285397656e-03  3.3951344689329690e-03  0.0000000000000000e+00  0.0000000000000000e+00  3.9489643298140755e-03  7.8835366374461809e-03  1.1788033257254839e-02  1.5641343699365731e-02  1.9415060738764478e-02  2.3072452433818558e-02  2.6568418932988124e-02  2.9850481673995413e-02  3.2860750830036034e-02  3.5538718202545588e-02  3.7824636988366973e-02  3.9663185944030545e-02  4.1007080580603608e-02  4.1820292537943338e-02  4.2080571155507347e-02  4.1781025686142448e-02  4.0930616223676594e-02  3.9553506941669599e-02  3.7687345507442585e-02  3.5380635838743506e-02  3.2689456867514829e-02  2.9673838957179684e-02  2.6394136471313678e-02  2.2907727715150671e-02  1.9266333730605014e-02  1.5514180141823012e-02  1.1687138854992032e-02  7.8128879136173217e-03  3.9120277781474581e-03  0.0000000000000000e+00  0.0000000000000000e+00  4.4362353992293650e-03  8.8564271894050195e-03  1.3242975459419208e-02  1.7572201510362550e-02  2.1812239881730797e-02  2.5921874665791381e-02  2.9850481673995406e-02  3.3539130950695890e-02  3.6922789751378783e-02  3.9933455153028707e-02  4.2503948909666585e-02  4.4572035092125192e-02  4.6084481508527543e-02  4.7000683859439209e-02  4.7295508153719600e-02  4.6961079011676260e-02  4.6007342002616365e-02  4.4461346691784635e-02  4.2365321074348913e-02  3.9773724388000087e-02  3.6749561704848298e-02  3.3360310374270029e-02  2.9673838957179680e-02  2.5754691462232079e-02  2.1661065293222533e-02  1.7442735850521432e-02  1.3140082549076953e-02  8.7842602579167144e-03  4.3984476373226484e-03  0.0000000000000000e+00  0.0000000000000000e+00  4.8828682376077541e-03  9.7482578704759116e-03  1.4576818912815703e-02  1.9342527292945218e-02  2.4010357479450829e-02  2.8534992573576154e-02  3.2860750830036034e-02  3.6922789751378783e-02  4.0649522963961848e-02  4.3966062829926995e-02  4.6798395237528441e-02  4.9077913347954520e-02  5.0745893148066316e-02  5.1757490978595097e-02  5.2084883057991617e-02  5.1719246062880753e-02  5.0671388280334080e-02  4.8970971284557060e-02  4.6664398724137218e-02  4.3811577129461474e-02  4.0481860177607708e-02  3.6749561704848326e-02  3.2689456867514829e-02  2.8372682632996124e-02  2.3863400198554825e-02  1.9216499019347553e-02  1.4476514066365971e-02  9.6778059052512969e-03  4.8459291160780618e-03  0.0000000000000000e+00  0.0000000000000000e+00  5.2798684644412607e-03  1.0541077139566746e-02  1.5762725391429890e-02  2.0916712085864899e-02  2.5965211885442201e-02  3.0859271159763134e-02  3.5538718202545609e-02  3.9933455153028735e-02  4.3966062829927044e-02  4.7555517356473065e-02  5.0621702020520340e-02  5.3090311296711351e-02  5.4897696001797877e-02  5.5995195171563872e-02  5.6352542885578533e-02  5.5960023374441774e-02  5.4829166967151802e-02  5.2991920447950043e-02  5.0498373293267472e-02  4.7413260345870650e-02  4.3811577129461508e-02  3.9773724388000156e-02  3.5380635838743540e-02  3.0709334692495118e-02  2.5829312289772144e-02  2.0800032717968285e-02  1.5669750437672412e-02  1.0475695853122993e-02  5.2455493395398298e-03  0.0000000000000000e+00  0.0000000000000000e+00  5.6183786031253043e-03  1.1217198866752863e-02  1.6774241817711200e-02  2.2259642444832202e-02  2.7633197152038519e-02  3.2842860122076337e-02  3.7824636988366987e-02  4.2503948909666626e-02  4.6798395237528490e-02  5.0621702020520375e-02  5.3888520474115575e-02  5.6519647073108206e-02  5.8447185394739747e-02  5.9619165709452554e-02  6.0003183189264397e-02  5.9588705771754964e-02  5.8387829346438949e-02  5.6434407941390437e-02  5.3781644137300522e-02  5.0498373293267527e-02  4.6664398724137274e-02  4.2365321074349059e-02  3.7687345507442647e-02  3.2712541853612102e-02  2.7514977674332277e-02  2.2158049181326873e-02  1.6693210635025973e-02  1.1160162127328064e-02  5.5884123085759704e-03  0.0000000000000000e+00  0.0000000000000000e+00  5.8902224219778447e-03  1.1760288954305458e-02  1.7586925064016851e-02  2.3338856524842046e-02  2.8973979654414776e-02  3.4437775248472385e-02  3.9663185944030566e-02  4.4572035092125234e-02  4.9077913347954590e-02  5.3090311296711400e-02  5.6519647073108172e-02  5.9282740555213251e-02  6.1308231160220966e-02  6.2541431368258266e-02  6.2948154606942502e-02  6.2517150228121793e-02  6.1260910799789368e-02  5.9214774150393085e-02  5.6434407941390402e-02  5.2991920447950112e-02  4.8970971284557151e-02  4.4461346691784746e-02  3.9553506941669703e-02  3.4333605073025304e-02  2.8879418718002470e-02  2.3257537384387596e-02  1.7522017254931598e-02  1.1714567867636727e-02  5.8661844267671502e-03  0.0000000000000000e+00  0.0000000000000000e+00  6.0884388767758280e-03  1.2156432042489358e-02  1.8179938224461626e-02  2.4126663957228404e-02  2.9953131828357921e-02  3.5603031311689640e-02  4.1007080580603580e-02  4.6084481508527571e-02  5.0745893148066344e-02  5.4897696001797919e-02  5.8447185394739747e-02  6.1308231160220855e-02  6.3406883908715461e-02  6.4686402483795535e-02  6.5111224712106605e-02  6.4669500357536797e-02  6.3373941850905877e-02  6.1260910799789382e-02  5.8387829346439046e-02  5.4829166967151885e-02  5.0671388280334163e-02  4.6007342002616476e-02  4.0930616223676677e-02  3.5530377117101948e-02  2.9887149254190320e-02  2.4069893190359539e-02  1.8134601340190598e-02  1.2124480318337925e-02  6.0716318903166425e-03  0.0000000000000000e+00  0.0000000000000000e+00  6.2077555396351609e-03  1.2395078182217082e-02  1.8537468536821994e-02  2.4602030561585449e-02  3.0544475845027334e-02  3.6307432462191480e-02  4.1820292537943310e-02  4.7000683859439202e-02  5.1757490978595111e-02  5.5995195171563907e-02  5.9619165709452561e-02  6.2541431368258252e-02  6.4686402483795535e-02  6.5996007464783790e-02  6.6433755520366011e-02  6.5987335573218661e-02  6.4669500357536783e-02  6.2517150228121793e-02  5.9588705771755020e-02  5.5960023374441836e-02  5.1719246062880822e-02  4.6961079011676371e-02  4.1781025686142531e-02  3.6270112975847042e-02  3.0510574024098763e-02  2.4572853216700531e-02  1.8514160548498297e-02  1.2378646585735814e-02  6.1991097956584163e-03  0.0000000000000000e+00  0.0000000000000000e+00  6.2449565356001106e-03  1.2469779529629278e-02  1.8649832226134436e-02  2.4752048797843026e-02  3.0731914499269403e-02  3.6531754925590909e-02  4.2080571155507347e-02  4.7295508153719606e-02  5.2084883057991645e-02  5.6352542885578581e-02  6.0003183189264439e-02  6.2948154606942572e-02  6.5111224712106647e-02  6.6433755520365984e-02  6.6878804535415878e-02  6.6433755520366011e-02  6.5111224712106605e-02  6.2948154606942489e-02  6.0003183189264377e-02  5.6352542885578547e-02  5.2084883057991672e-02  4.7295508153719718e-02  4.2080571155507458e-02  3.6531754925590978e-02  3.0731914499269476e-02  2.4752048797843092e-02  1.8649832226134481e-02  1.2469779529629306e-02  6.2449565356001253e-03  0.0000000000000000e+00  0.0000000000000000e+00  6.1991097956584033e-03  1.2378646585735786e-02  1.8514160548498255e-02  2.4572853216700486e-02  3.0510574024098722e-02  3.6270112975847001e-02  4.1781025686142469e-02  4.6961079011676302e-02  5.1719246062880843e-02  5.5960023374441864e-02  5.9588705771755082e-02  6.2517150228121848e-02  6.4669500357536810e-02  6.5987335573218606e-02  6.6433755520365984e-02  6.5996007464783818e-02  6.4686402483795508e-02  6.2541431368258210e-02  5.9619165709452498e-02  5.5995195171563872e-02  5.1757490978595146e-02  4.7000683859439292e-02  4.1820292537943379e-02  3.6307432462191536e-02  3.0544475845027397e-02  2.4602030561585511e-02  1.8537468536822043e-02  1.2395078182217118e-02  6.2077555396351800e-03  0.0000000000000000e+00  0.0000000000000000e+00  6.0716318903166261e-03  1.2124480318337905e-02  1.8134601340190563e-02  2.4069893190359515e-02  2.9887149254190292e-02  3.5530377117101934e-02  4.0930616223676643e-02  4.6007342002616414e-02  5.0671388280334156e-02  5.4829166967151899e-02  5.8387829346439109e-02  6.1260910799789403e-02  6.3373941850905932e-02  6.4669500357536838e-02  6.5111224712106591e-02  6.4686402483795549e-02  6.3406883908715447e-02  6.1308231160220890e-02  5.8447185394739698e-02  5.4897696001797898e-02  5.0745893148066372e-02  4.6084481508527612e-02  4.1007080580603636e-02  3.5603031311689695e-02  2.9953131828357953e-02  2.4126663957228449e-02  1.8179938224461664e-02  1.2156432042489392e-02  6.0884388767758479e-03  0.0000000000000000e+00  0.0000000000000000e+00  5.8661844267671294e-03  1.1714567867636697e-02  1.7522017254931559e-02  2.3257537384387558e-02  2.8879418718002432e-02  3.4333605073025276e-02  3.9553506941669661e-02  4.4461346691784698e-02  4.8970971284557178e-02  5.2991920447950140e-02  5.6434407941390478e-02  5.9214774150393133e-02  6.1260910799789417e-02  6.2517150228121821e-02  6.2948154606942530e-02  6.2541431368258224e-02  6.1308231160220938e-02  5.9282740555213230e-02  5.6519647073108144e-02  5.3090311296711372e-02  4.9077913347954590e-02  4.4572035092125262e-02  3.9663185944030573e-02  3.4437775248472378e-02  2.8973979654414780e-02  2.3338856524842074e-02  1.7586925064016885e-02  1.1760288954305483e-02  5.8902224219778594e-03  0.0000000000000000e+00  0.0000000000000000e+00  5.5884123085759557e-03  1.1160162127328037e-02  1.6693210635025948e-02  2.2158049181326838e-02  2.7514977674332253e-02  3.2712541853612116e-02  3.7687345507442647e-02  4.2365321074349004e-02  4.6664398724137301e-02  5.0498373293267548e-02  5.3781644137300577e-02  5.6434407941390444e-02  5.8387829346439032e-02  5.9588705771755027e-02  6.0003183189264439e-02  5.9619165709452526e-02  5.8447185394739698e-02  5.6519647073108130e-02  5.3888520474115575e-02  5.0621702020520402e-02  4.6798395237528510e-02  4.2503948909666640e-02  3.7824636988366966e-02  3.2842860122076295e-02  2.7633197152038495e-02  2.2259642444832209e-02  1.6774241817711224e-02  1.1217198866752874e-02  5.6183786031253138e-03  0.0000000000000000e+00  0.0000000000000000e+00  5.2455493395398255e-03  1.0475695853122986e-02  1.5669750437672398e-02  2.0800032717968282e-02  2.5829312289772154e-02  3.0709334692495139e-02  3.5380635838743561e-02  3.9773724388000135e-02  4.3811577129461536e-02  4.7413260345870713e-02  5.0498373293267569e-02  5.2991920447950126e-02  5.4829166967151843e-02  5.5960023374441836e-02  5.6352542885578574e-02  5.5995195171563886e-02  5.4897696001797919e-02  5.3090311296711393e-02  5.0621702020520416e-02  4.7555517356473113e-02  4.3966062829927099e-02  3.9933455153028756e-02  3.5538718202545651e-02  3.0859271159763144e-02  2.5965211885442215e-02  2.0916712085864920e-02  1.5762725391429904e-02  1.0541077139566762e-02  5.2798684644412780e-03  0.0000000000000000e+00  0.0000000000000000e+00  4.8459291160780644e-03  9.6778059052513021e-03  1.4476514066365987e-02  1.9216499019347563e-02  2.3863400198554843e-02  2.8372682632996159e-02  3.2689456867514843e-02  3.6749561704848346e-02  4.0481860177607770e-02  4.3811577129461571e-02  4.6664398724137308e-02  4.8970971284557178e-02  5.0671388280334170e-02  5.1719246062880815e-02  5.2084883057991645e-02  5.1757490978595111e-02  5.0745893148066358e-02  4.9077913347954645e-02  4.6798395237528573e-02  4.3966062829927155e-02  4.0649522963961980e-02  3.6922789751378922e-02  3.2860750830036131e-02  2.8534992573576192e-02  2.4010357479450878e-02  1.9342527292945257e-02  1.4576818912815731e-02  9.7482578704759359e-03  4.8828682376077697e-03  0.0000000000000000e+00  0.0000000000000000e+00  4.3984476373226588e-03  8.7842602579167386e-03  1.3140082549077000e-02  1.7442735850521474e-02  2.1661065293222568e-02  2.5754691462232124e-02  2.9673838957179725e-02  3.3360310374270070e-02  3.6749561704848388e-02  3.9773724388000177e-02  4.2365321074349059e-02  4.4461346691784767e-02  4.6007342002616504e-02  4.6961079011676371e-02  4.7295508153719690e-02  4.7000683859439271e-02  4.6084481508527626e-02  4.4572035092125317e-02  4.2503948909666744e-02  3.9933455153028888e-02  3.6922789751378984e-02  3.3539130950696064e-02  2.9850481673995535e-02  2.5921874665791461e-02  2.1812239881730880e-02  1.7572201510362609e-02  1.3242975459419250e-02  8.8564271894050473e-03  4.4362353992293815e-03  0.0000000000000000e+00  0.0000000000000000e+00  3.9120277781474668e-03  7.8128879136173408e-03  1.1687138854992066e-02  1.5514180141823051e-02  1.9266333730605059e-02  2.2907727715150702e-02  2.6394136471313705e-02  2.9673838957179705e-02  3.2689456867514857e-02  3.5380635838743568e-02  3.7687345507442689e-02  3.9553506941669689e-02  4.0930616223676691e-02  4.1781025686142531e-02  4.2080571155507410e-02  4.1820292537943372e-02  4.1007080580603643e-02  3.9663185944030635e-02  3.7824636988367084e-02  3.5538718202545741e-02  3.2860750830036187e-02  2.9850481673995569e-02  2.6568418932988239e-02  2.3072452433818634e-02  1.9415060738764537e-02  1.5641343699365786e-02  1.1788033257254879e-02  7.8835366374462052e-03  3.9489643298140885e-03  0.0000000000000000e+00  0.0000000000000000e+00  3.3951344689329742e-03  6.7806093285397778e-03  1.0143015452461558e-02  1.3464487083553349e-02  1.6721032411698575e-02  1.9881558900167039e-02  2.2907727715150684e-02  2.5754691462232086e-02  2.8372682632996124e-02  3.0709334692495125e-02  3.2712541853612130e-02  3.4333605073025297e-02  3.5530377117101948e-02  3.6270112975847035e-02  3.6531754925590972e-02  3.6307432462191536e-02  3.5603031311689716e-02  3.4437775248472434e-02  3.2842860122076399e-02  3.0859271159763224e-02  2.8534992573576261e-02  2.5921874665791513e-02  2.3072452433818658e-02  2.0037008660673910e-02  1.6861144425345448e-02  1.3584064660608812e-02  1.0237712021289563e-02  6.8467967217894221e-03  3.4296817127959685e-03  0.0000000000000000e+00  0.0000000000000000e+00  2.8553834094691738e-03  5.7026529610568841e-03  8.5305193029851338e-03  1.1323966283826262e-02  1.4062841877495680e-02  1.6721032411698561e-02  1.9266333730605021e-02  2.1661065293222533e-02  2.3863400198554815e-02  2.5829312289772140e-02  2.7514977674332253e-02  2.8879418718002457e-02  2.9887149254190299e-02  3.0510574024098739e-02  3.0731914499269458e-02  3.0544475845027393e-02  2.9953131828358001e-02  2.8973979654414839e-02  2.7633197152038578e-02  2.5965211885442287e-02  2.4010357479450958e-02  2.1812239881730939e-02  1.9415060738764579e-02  1.6861144425345486e-02  1.4188890166390444e-02  1.1431324279067508e-02  8.6153650454167605e-03  5.7618407028275920e-03  2.8862268026988002e-03  0.0000000000000000e+00  0.0000000000000000e+00  2.2992762277564507e-03  4.5920236529872352e-03  6.8691326145076280e-03  9.1185156843135422e-03  1.1323966283826257e-02  1.3464487083553333e-02  1.5514180141823016e-02  1.7442735850521432e-02  1.9216499019347539e-02  2.0800032717968271e-02  2.2158049181326848e-02  2.3257537384387572e-02  2.4069893190359539e-02  2.4572853216700517e-02  2.4752048797843061e-02  2.4602030561585501e-02  2.4126663957228452e-02  2.3338856524842102e-02  2.2259642444832254e-02  2.0916712085864968e-02  1.9342527292945305e-02  1.7572201510362647e-02  1.5641343699365810e