<?xml version="1.0"?>
<VTKFile type="UnstructuredGrid"  version="0.1"  >
<UnstructuredGrid>
<Piece  NumberOfPoints="961" NumberOfCells="1800">
<Points>
<DataArray  type="Float64"  NumberOfComponents="3"  format="ascii">-2 -2 0  -1.866666666666667 -2 0  -1.733333333333333 -2 0  -1.6 -2 0  -1.466666666666667 -2 0  -1.333333333333333 -2 0  -1.2 -2 0  -1.066666666666667 -2 0  -0.9333333333333333 -2 0  -0.8 -2 0  -0.6666666666666667 -2 0  -0.5333333333333334 -2 0  -0.3999999999999999 -2 0  -0.2666666666666666 -2 0  -0.1333333333333333 -2 0  0 -2 0  0.1333333333333333 -2 0  0.2666666666666666 -2 0  0.3999999999999999 -2 0  0.5333333333333332 -2 0  0.6666666666666665 -2 0  0.7999999999999998 -2 0  0.9333333333333331 -2 0  1.066666666666667 -2 0  1.2 -2 0  1.333333333333333 -2 0  1.466666666666667 -2 0  1.6 -2 0  1.733333333333333 -2 0  1.866666666666667 -2 0  2 -2 0  -2 -1.866666666666667 0  -1.866666666666667 -1.866666666666667 0  -1.733333333333333 -1.866666666666667 0  -1.6 -1.866666666666667 0  -1.466666666666667 -1.866666666666667 0  -1.333333333333333 -1.866666666666667 0  -1.2 -1.866666666666667 0  -1.066666666666667 -1.866666666666667 0  -0.9333333333333333 -1.866666666666667 0  -0.8 -1.866666666666667 0  -0.6666666666666667 -1.866666666666667 0  -0.5333333333333334 -1.866666666666667 0  -0.3999999999999999 -1.866666666666667 0  -0.2666666666666666 -1.866666666666667 0  -0.1333333333333333 -1.866666666666667 0  0 -1.866666666666667 0  0.1333333333333333 -1.866666666666667 0  0.2666666666666666 -1.866666666666667 0  0.3999999999999999 -1.866666666666667 0  0.5333333333333332 -1.866666666666667 0  0.6666666666666665 -1.866666666666667 0  0.7999999999999998 -1.866666666666667 0  0.9333333333333331 -1.866666666666667 0  1.066666666666667 -1.866666666666667 0  1.2 -1.866666666666667 0  1.333333333333333 -1.866666666666667 0  1.466666666666667 -1.866666666666667 0  1.6 -1.866666666666667 0  1.733333333333333 -1.866666666666667 0  1.866666666666667 -1.866666666666667 0  2 -1.866666666666667 0  -2 -1.733333333333333 0  -1.866666666666667 -1.733333333333333 0  -1.733333333333333 -1.733333333333333 0  -1.6 -1.733333333333333 0  -1.466666666666667 -1.733333333333333 0  -1.333333333333333 -1.733333333333333 0  -1.2 -1.733333333333333 0  -1.066666666666667 -1.733333333333333 0  -0.9333333333333333 -1.733333333333333 0  -0.8 -1.733333333333333 0  -0.6666666666666667 -1.733333333333333 0  -0.5333333333333334 -1.733333333333333 0  -0.3999999999999999 -1.733333333333333 0  -0.2666666666666666 -1.733333333333333 0  -0.1333333333333333 -1.733333333333333 0  0 -1.733333333333333 0  0.1333333333333333 -1.733333333333333 0  0.2666666666666666 -1.733333333333333 0  0.3999999999999999 -1.733333333333333 0  0.5333333333333332 -1.733333333333333 0  0.6666666666666665 -1.733333333333333 0  0.7999999999999998 -1.733333333333333 0  0.9333333333333331 -1.733333333333333 0  1.066666666666667 -1.733333333333333 0  1.2 -1.733333333333333 0  1.333333333333333 -1.733333333333333 0  1.466666666666667 -1.733333333333333 0  1.6 -1.733333333333333 0  1.733333333333333 -1.733333333333333 0  1.866666666666667 -1.733333333333333 0  2 -1.733333333333333 0  -2 -1.6 0  -1.866666666666667 -1.6 0  -1.733333333333333 -1.6 0  -1.6 -1.6 0  -1.466666666666667 -1.6 0  -1.333333333333333 -1.6 0  -1.2 -1.6 0  -1.066666666666667 -1.6 0  -0.9333333333333333 -1.6 0  -0.8 -1.6 0  -0.6666666666666667 -1.6 0  -0.5333333333333334 -1.6 0  -0.3999999999999999 -1.6 0  -0.2666666666666666 -1.6 0  -0.1333333333333333 -1.6 0  0 -1.6 0  0.1333333333333333 -1.6 0  0.2666666666666666 -1.6 0  0.3999999999999999 -1.6 0  0.5333333333333332 -1.6 0  0.6666666666666665 -1.6 0  0.7999999999999998 -1.6 0  0.9333333333333331 -1.6 0  1.066666666666667 -1.6 0  1.2 -1.6 0  1.333333333333333 -1.6 0  1.466666666666667 -1.6 0  1.6 -1.6 0  1.733333333333333 -1.6 0  1.866666666666667 -1.6 0  2 -1.6 0  -2 -1.466666666666667 0  -1.866666666666667 -1.466666666666667 0  -1.733333333333333 -1.466666666666667 0  -1.6 -1.466666666666667 0  -1.466666666666667 -1.466666666666667 0  -1.333333333333333 -1.466666666666667 0  -1.2 -1.466666666666667 0  -1.066666666666667 -1.466666666666667 0  -0.9333333333333333 -1.466666666666667 0  -0.8 -1.466666666666667 0  -0.6666666666666667 -1.466666666666667 0  -0.5333333333333334 -1.466666666666667 0  -0.3999999999999999 -1.466666666666667 0  -0.2666666666666666 -1.466666666666667 0  -0.1333333333333333 -1.466666666666667 0  0 -1.466666666666667 0  0.1333333333333333 -1.466666666666667 0  0.2666666666666666 -1.466666666666667 0  0.3999999999999999 -1.466666666666667 0  0.5333333333333332 -1.466666666666667 0  0.6666666666666665 -1.466666666666667 0  0.7999999999999998 -1.466666666666667 0  0.9333333333333331 -1.466666666666667 0  1.066666666666667 -1.466666666666667 0  1.2 -1.466666666666667 0  1.333333333333333 -1.466666666666667 0  1.466666666666667 -1.466666666666667 0  1.6 -1.466666666666667 0  1.733333333333333 -1.466666666666667 0  1.866666666666667 -1.466666666666667 0  2 -1.466666666666667 0  -2 -1.333333333333333 0  -1.866666666666667 -1.333333333333333 0  -1.733333333333333 -1.333333333333333 0  -1.6 -1.333333333333333 0  -1.466666666666667 -1.333333333333333 0  -1.333333333333333 -1.333333333333333 0  -1.2 -1.333333333333333 0  -1.066666666666667 -1.333333333333333 0  -0.9333333333333333 -1.333333333333333 0  -0.8 -1.333333333333333 0  -0.6666666666666667 -1.333333333333333 0  -0.5333333333333334 -1.333333333333333 0  -0.3999999999999999 -1.333333333333333 0  -0.2666666666666666 -1.333333333333333 0  -0.1333333333333333 -1.333333333333333 0  0 -1.333333333333333 0  0.1333333333333333 -1.333333333333333 0  0.2666666666666666 -1.333333333333333 0  0.3999999999999999 -1.333333333333333 0  0.5333333333333332 -1.333333333333333 0  0.6666666666666665 -1.333333333333333 0  0.7999999999999998 -1.333333333333333 0  0.9333333333333331 -1.333333333333333 0  1.066666666666667 -1.333333333333333 0  1.2 -1.333333333333333 0  1.333333333333333 -1.333333333333333 0  1.466666666666667 -1.333333333333333 0  1.6 -1.333333333333333 0  1.733333333333333 -1.333333333333333 0  1.866666666666667 -1.333333333333333 0  2 -1.333333333333333 0  -2 -1.2 0  -1.866666666666667 -1.2 0  -1.733333333333333 -1.2 0  -1.6 -1.2 0  -1.466666666666667 -1.2 0  -1.333333333333333 -1.2 0  -1.2 -1.2 0  -1.066666666666667 -1.2 0  -0.9333333333333333 -1.2 0  -0.8 -1.2 0  -0.6666666666666667 -1.2 0  -0.5333333333333334 -1.2 0  -0.3999999999999999 -1.2 0  -0.2666666666666666 -1.2 0  -0.1333333333333333 -1.2 0  0 -1.2 0  0.1333333333333333 -1.2 0  0.2666666666666666 -1.2 0  0.3999999999999999 -1.2 0  0.5333333333333332 -1.2 0  0.6666666666666665 -1.2 0  0.7999999999999998 -1.2 0  0.9333333333333331 -1.2 0  1.066666666666667 -1.2 0  1.2 -1.2 0  1.333333333333333 -1.2 0  1.466666666666667 -1.2 0  1.6 -1.2 0  1.733333333333333 -1.2 0  1.866666666666667 -1.2 0  2 -1.2 0  -2 -1.066666666666667 0  -1.866666666666667 -1.066666666666667 0  -1.733333333333333 -1.066666666666667 0  -1.6 -1.066666666666667 0  -1.466666666666667 -1.066666666666667 0  -1.333333333333333 -1.066666666666667 0  -1.2 -1.066666666666667 0  -1.066666666666667 -1.066666666666667 0  -0.9333333333333333 -1.066666666666667 0  -0.8 -1.066666666666667 0  -0.6666666666666667 -1.066666666666667 0  -0.5333333333333334 -1.066666666666667 0  -0.3999999999999999 -1.066666666666667 0  -0.2666666666666666 -1.066666666666667 0  -0.1333333333333333 -1.066666666666667 0  0 -1.066666666666667 0  0.1333333333333333 -1.066666666666667 0  0.2666666666666666 -1.066666666666667 0  0.3999999999999999 -1.066666666666667 0  0.5333333333333332 -1.066666666666667 0  0.6666666666666665 -1.066666666666667 0  0.7999999999999998 -1.066666666666667 0  0.9333333333333331 -1.066666666666667 0  1.066666666666667 -1.066666666666667 0  1.2 -1.066666666666667 0  1.333333333333333 -1.066666666666667 0  1.466666666666667 -1.066666666666667 0  1.6 -1.066666666666667 0  1.733333333333333 -1.066666666666667 0  1.866666666666667 -1.066666666666667 0  2 -1.066666666666667 0  -2 -0.9333333333333333 0  -1.866666666666667 -0.9333333333333333 0  -1.733333333333333 -0.9333333333333333 0  -1.6 -0.9333333333333333 0  -1.466666666666667 -0.9333333333333333 0  -1.333333333333333 -0.9333333333333333 0  -1.2 -0.9333333333333333 0  -1.066666666666667 -0.9333333333333333 0  -0.9333333333333333 -0.9333333333333333 0  -0.8 -0.9333333333333333 0  -0.6666666666666667 -0.9333333333333333 0  -0.5333333333333334 -0.9333333333333333 0  -0.3999999999999999 -0.9333333333333333 0  -0.2666666666666666 -0.9333333333333333 0  -0.1333333333333333 -0.9333333333333333 0  0 -0.9333333333333333 0  0.1333333333333333 -0.9333333333333333 0  0.2666666666666666 -0.9333333333333333 0  0.3999999999999999 -0.9333333333333333 0  0.5333333333333332 -0.9333333333333333 0  0.6666666666666665 -0.9333333333333333 0  0.7999999999999998 -0.9333333333333333 0  0.9333333333333331 -0.9333333333333333 0  1.066666666666667 -0.9333333333333333 0  1.2 -0.9333333333333333 0  1.333333333333333 -0.9333333333333333 0  1.466666666666667 -0.9333333333333333 0  1.6 -0.9333333333333333 0  1.733333333333333 -0.9333333333333333 0  1.866666666666667 -0.9333333333333333 0  2 -0.9333333333333333 0  -2 -0.8 0  -1.866666666666667 -0.8 0  -1.733333333333333 -0.8 0  -1.6 -0.8 0  -1.466666666666667 -0.8 0  -1.333333333333333 -0.8 0  -1.2 -0.8 0  -1.066666666666667 -0.8 0  -0.9333333333333333 -0.8 0  -0.8 -0.8 0  -0.6666666666666667 -0.8 0  -0.5333333333333334 -0.8 0  -0.3999999999999999 -0.8 0  -0.2666666666666666 -0.8 0  -0.1333333333333333 -0.8 0  0 -0.8 0  0.1333333333333333 -0.8 0  0.2666666666666666 -0.8 0  0.3999999999999999 -0.8 0  0.5333333333333332 -0.8 0  0.6666666666666665 -0.8 0  0.7999999999999998 -0.8 0  0.9333333333333331 -0.8 0  1.066666666666667 -0.8 0  1.2 -0.8 0  1.333333333333333 -0.8 0  1.466666666666667 -0.8 0  1.6 -0.8 0  1.733333333333333 -0.8 0  1.866666666666667 -0.8 0  2 -0.8 0  -2 -0.6666666666666667 0  -1.866666666666667 -0.
[...]
<PointData  Scalars="f_12"> 
<DataArray  type="Float64"  Name="f_12"  format="ascii">0.0000000000000000e+00  0.0000000000000000e+00  0.0000000000000000e+00  0.0000000000000000e+00  0.0000000000000000e+00  0.0000000000000000e+00  0.0000000000000000e+00  0.0000000000000000e+00  0.0000000000000000e+00  0.0000000000000000e+00  0.0000000000000000e+00  0.0000000000000000e+00  0.0000000000000000e+00  0.0000000000000000e+00  0.0000000000000000e+00  0.0000000000000000e+00  0.0000000000000000e+00  0.0000000000000000e+00  0.0000000000000000e+00  0.0000000000000000e+00  0.0000000000000000e+00  0.0000000000000000e+00  0.0000000000000000e+00  0.0000000000000000e+00  0.0000000000000000e+00  0.0000000000000000e+00  0.0000000000000000e+00  0.0000000000000000e+00  0.0000000000000000e+00  0.0000000000000000e+00  0.0000000000000000e+00  0.0000000000000000e+00  2.3718916707004303e-04  4.7137861954175259e-04  7.0019495726314897e-04  9.2122934259515003e-04  1.1321158659634467e-03  1.3305757634736539e-03  1.5144500322773426e-03  1.6817272450535188e-03  1.8305686780966687e-03  1.9593313122806366e-03  2.0665886874051314e-03  2.1511493573659148e-03  2.2120726063500772e-03  2.2486810753707905e-03  2.2605699861056403e-03  2.2476127208596085e-03  2.2099626132628353e-03  2.1480509147232076e-03  2.0625810176211350e-03  1.9545191292291791e-03  1.8250816931672169e-03  1.6757199432356194e-03  1.5081020476389836e-03  1.3240933684053389e-03  1.1257354480423269e-03  9.1522451604930969e-04  6.9489078759125945e-04  4.6718123848389864e-04  2.3465301768565346e-04  0.0000000000000000e+00  0.0000000000000000e+00  4.7137861954175264e-04  9.3705713975409603e-04  1.3921459571320353e-03  1.8318000629714921e-03  2.2512939410233657e-03  2.6460866485874790e-03  3.0118795776423505e-03  3.3446693189813858e-03  3.6407966952746039e-03  3.8969921085727634e-03  4.1104168371140885e-03  4.2786996580531627e-03  4.3999680708723303e-03  4.4728734016519552e-03  4.4966091541888773e-03  4.4709221214971661e-03  4.3961159637246720e-03  4.2730471788768442e-03  4.1031136234325801e-03  3.8882359639992232e-03  3.6308326437686327e-03  3.3337891180802029e-03  3.0004222481113244e-03  2.6344408477508743e-03  2.2399034813429136e-03  1.8211747664609629e-03  1.3828817589370600e-03  9.2987266861561946e-04  4.6718123848389897e-04  0.0000000000000000e+00  0.0000000000000000e+00  7.0019495726314908e-04  1.3921459571320358e-03  2.0684767922084066e-03  2.7219337969980294e-03  3.3454677500939925e-03  3.9323160500958519e-03  4.4760819816783313e-03  4.9708103140365771e-03  5.4110587931515105e-03  5.7919648690709221e-03  6.1093067374322465e-03  6.3595576005599759e-03  6.5399319918554724e-03  6.6484230546922747e-03  6.6838298124185297e-03  6.6457736936035676e-03  6.5347038665458813e-03  6.3518912660768933e-03  6.0994115386340591e-03  5.7801174632221008e-03  5.3976017033897719e-03  4.9561509907530580e-03  4.4606930232482670e-03  3.9167374800151899e-03  3.3303126189097284e-03  2.7078989486053282e-03  2.0563614585927623e-03  1.3828817589370611e-03  6.9489078759126020e-04  0.0000000000000000e+00  0.0000000000000000e+00  9.2122934259515046e-04  1.8318000629714917e-03  2.7219337969980263e-03  3.5820397724787910e-03  4.4028136321951749e-03  5.1753383625239048e-03  5.8911841623032262e-03  6.5425054235593557e-03  7.1221334406117538e-03  7.6236634731003247e-03  8.0415346687178202e-03  8.3711012535262145e-03  8.6086933865599773e-03  8.7516661740985463e-03  8.7984355488531559e-03  8.7485000281795431e-03  8.6024477515741788e-03  8.3619486326955220e-03  8.0297319126374934e-03  7.6095498359816651e-03  7.1061285583582500e-03  6.5251077081260739e-03  5.8729702470500080e-03  5.1569643955457671e-03  4.3850194036088117e-03  3.5656568537230427e-03  2.7078989486053287e-03  1.8211747664609635e-03  9.1522451604931045e-04  0.0000000000000000e+00  0.0000000000000000e+00  1.1321158659634474e-03  2.2512939410233653e-03  3.3454677500939899e-03  4.4028136321951732e-03  5.4118702649019581e-03  6.3616596840690952e-03  7.2418075067567792e-03  8.0426603807999750e-03  8.7553988156102019e-03  9.3721435063121306e-03  9.8860531601468443e-03  1.0291411765223199e-02  1.0583703265742988e-02  1.0759671753030399e-02  1.0817365553766018e-02  1.0756163984431539e-02  1.0576786019845023e-02  1.0281280660239768e-02  9.8729993364843702e-03  9.3565512259586488e-03  8.7377428236730965e-03  8.0235034914383357e-03  7.2217989673673344e-03  6.3415349428721374e-03  5.3924527961599069e-03  4.3850194036088169e-03  3.3303126189097310e-03  2.2399034813429157e-03  1.1257354480423280e-03  0.0000000000000000e+00  0.0000000000000000e+00  1.3305757634736555e-03  2.6460866485874795e-03  3.9323160500958527e-03  5.1753383625239048e-03  6.3616596840690943e-03  7.4783590495141631e-03  8.5132284932214197e-03  9.4549100327125397e-03  1.0293027500660206e-02  1.1018310979361607e-02  1.1622711439732841e-02  1.2099503109411817e-02  1.2443371134577932e-02  1.2650482281699968e-02  1.2718536753147179e-02  1.2646799651314052e-02  1.2436111191784250e-02  1.2088875398228083e-02  1.1609027664501058e-02  1.1001982194823078e-02  1.0274560885249317e-02  9.4349056494907949e-03  8.4923764895341574e-03  7.4574377475966633e-03  6.3415349428721400e-03  5.1569643955457697e-03  3.9167374800151908e-03  2.6344408477508765e-03  1.3240933684053400e-03  0.0000000000000000e+00  0.0000000000000000e+00  1.5144500322773439e-03  3.0118795776423526e-03  4.4760819816783357e-03  5.8911841623032280e-03  7.2418075067567818e-03  8.5132284932214232e-03  9.6915376084636320e-03  1.0763794697034673e-02  1.1718178523920380e-02  1.2544128036636872e-02  1.3232472594498820e-02  1.3775548328447292e-02  1.4167297837214749e-02  1.4403350633799614e-02  1.4481082131720583e-02  1.4399649487061348e-02  1.4160003257907228e-02  1.3764874563193200e-02  1.3218738166275485e-02  1.2527752620090921e-02  1.1699679238452571e-02  1.0743782156941138e-02  9.6707120831509286e-03  8.4923764895341609e-03  7.2217989673673353e-03  5.8729702470500080e-03  4.4606930232482678e-03  3.0004222481113244e-03  1.5081020476389840e-03  0.0000000000000000e+00  0.0000000000000000e+00  1.6817272450535209e-03  3.3446693189813901e-03  4.9708103140365893e-03  6.5425054235593678e-03  8.0426603807999802e-03  9.4549100327125449e-03  1.0763794697034671e-02  1.1954932422705492e-02  1.3015184807508021e-02  1.3932813639031321e-02  1.4697625345752965e-02  1.5301100109531252e-02  1.5736502528680779e-02  1.5998970948250424e-02  1.6085582989856323e-02  1.5995395397907172e-02  1.5729457036113913e-02  1.5290794668441941e-02  1.4684371984362680e-02  1.3917023118721891e-02  1.2997362613917806e-02  1.1935674326715563e-02  1.0743782156941134e-02  9.4349056494907914e-03  8.0235034914383340e-03  6.5251077081260773e-03  4.9561509907530563e-03  3.3337891180802034e-03  1.6757199432356196e-03  0.0000000000000000e+00  0.0000000000000000e+00  1.8305686780966731e-03  3.6407966952746135e-03  5.4110587931515243e-03  7.1221334406117772e-03  8.7553988156102262e-03  1.0293027500660221e-02  1.1718178523920389e-02  1.3015184807508027e-02  1.4169733551419915e-02  1.5169036628732016e-02  1.6001987739225895e-02  1.6659302904572675e-02  1.7133640919355275e-02  1.7419700613965184e-02  1.7514292234694119e-02  1.7416380880816474e-02  1.7127100718153623e-02  1.6649739559505349e-02  1.5989694301411062e-02  1.5154398567895662e-02  1.4153224672273524e-02  1.2997362613917818e-02  1.1699679238452585e-02  1.0274560885249324e-02  8.7377428236731051e-03  7.1061285583582630e-03  5.3976017033897762e-03  3.6308326437686374e-03  1.8250816931672199e-03  0.0000000000000000e+00  0.0000000000000000e+00  1.9593313122806414e-03  3.8969921085727712e-03  5.7919648690709386e-03  7.6236634731003498e-03  9.3721435063121670e-03  1.1018310979361632e-02  1.2544128036636883e-02  1.3932813639031328e-02  1.5169036628732025e-02  1.6239098085672126e-02  1.7131099519172934e-02  1.7835093250804439e-02  1.8343211369064066e-02  1.8649769889183678e-02  1.8751345228254668e-02  1.8646820782443427e-02  1.8337402226201140e-02  1.7826601085019975e-02  1.7120187095898725e-02  1.6226110792514598e-02  1.5154398567895676e-02  1.3917023118721924e-02  1.2527752620090945e-02  1.1001982194823099e-02  9.3565512259586679e-03  7.6095498359816834e-03  5.7801174632221139e-03  3.8882359639992340e-03  1.9545191292291851e-03  0.0000000000000000e+00  0.0000000000000000e+00  2.0665886874051353e-03  4.1104168371140946e-03  6.1093067374322577e-03  8.0415346687178358e-03  9.8860531601468685e-03  1.1622711439732871e-02  1.3232472594498831e-02  1.4697625345752969e-02  1.6001987739225898e-02  1.7131099519172938e-02  1.8072399561488210e-02  1.8815384535110027e-02  1.9351744980011777e-02  1.9675475251164205e-02  1.9782954276791685e-02  1.9672994790070394e-02  1.9346859570473246e-02  1.8808244212945507e-02  1.8063226958688963e-02  1.7120187095898739e-02  1.5989694301411096e-02  1.4684371984362747e-02  1.3218738166275525e-02  1.1609027664501090e-02  9.8729993364844032e-03  8.0297319126375194e-03  6.0994115386340791e-03  4.1031136234325957e-03  2.0625810176211441e-03  0.0000000000000000e+00  0.0000000000000000e+00  2.1511493573659161e-03  4.2786996580531653e-03  6.3595576005599846e-03  8.3711012535262232e-03  1.0291411765223217e-02  1.2099503109411826e-02  1.3775548328447294e-02  1.5301100109531257e-02  1.6659302904572685e-02  1.7835093250804446e-02  1.8815384535110006e-02  1.9589232225625131e-02  2.0147975608742961e-02  2.0485352336787523e-02  2.0597582607207770e-02  2.0483420531273711e-02  2.0144171161443038e-02  1.9583672667993348e-02  1.8808244212945514e-02  1.7826601085019995e-02  1.6649739559505383e-02  1.5290794668441991e-02  1.3764874563193240e-02  1.2088875398228120e-02  1.0281280660239809e-02  8.3619486326955549e-03  6.3518912660769193e-03  4.2730471788768615e-03  2.1480509147232163e-03  0.0000000000000000e+00  0.0000000000000000e+00  2.2120726063500789e-03  4.3999680708723329e-03  6.5399319918554707e-03  8.6086933865599808e-03  1.0583703265742990e-02  1.2443371134577929e-02  1.4167297837214748e-02  1.5736502528680793e-02  1.7133640919355292e-02  1.8343211369064086e-02  1.9351744980011756e-02  2.0147975608742923e-02  2.0722985728305693e-02  2.1070324342580670e-02  2.1186093681517384e-02  2.1069002161377401e-02  2.0720382029340477e-02  2.0144171161443045e-02  1.9346859570473270e-02  1.8337402226201165e-02  1.7127100718153657e-02  1.5729457036113961e-02  1.4160003257907261e-02  1.2436111191784284e-02  1.0576786019845059e-02  8.6024477515742048e-03  6.5347038665459064e-03  4.3961159637246902e-03  2.2099626132628457e-03  0.0000000000000000e+00  0.0000000000000000e+00  2.2486810753707931e-03  4.4728734016519639e-03  6.6484230546922755e-03  8.7516661740985515e-03  1.0759671753030402e-02  1.2650482281699972e-02  1.4403350633799614e-02  1.5998970948250434e-02  1.7419700613965205e-02  1.8649769889183692e-02  1.9675475251164202e-02  2.0485352336787520e-02  2.1070324342580680e-02  2.1423822024541298e-02  2.1541871970521903e-02  2.1423150583283316e-02  2.1069002161377404e-02  2.0483420531273722e-02  1.9672994790070449e-02  1.8646820782443462e-02  1.7416380880816516e-02  1.5995395397907220e-02  1.4399649487061397e-02  1.2646799651314090e-02  1.0756163984431575e-02  8.7485000281795726e-03  6.6457736936035936e-03  4.4709221214971825e-03  2.2476127208596181e-03  0.0000000000000000e+00  0.0000000000000000e+00  2.2605699861056429e-03  4.4966091541888860e-03  6.6838298124185383e-03  8.7984355488531698e-03  1.0817365553766025e-02  1.2718536753147188e-02  1.4481082131720599e-02  1.6085582989856340e-02  1.7514292234694136e-02  1.8751345228254689e-02  1.9782954276791706e-02  2.0597582607207794e-02  2.1186093681517398e-02  2.1541871970521903e-02  2.1660911840103707e-02  2.1541871970521879e-02  2.1186093681517377e-02  2.0597582607207766e-02  1.9782954276791696e-02  1.8751345228254692e-02  1.7514292234694140e-02  1.6085582989856368e-02  1.4481082131720630e-02  1.2718536753147217e-02  1.0817365553766051e-02  8.7984355488531854e-03  6.6838298124185522e-03  4.4966091541888938e-03  2.2605699861056486e-03  0.0000000000000000e+00  0.0000000000000000e+00  2.2476127208596128e-03  4.4709221214971747e-03  6.6457736936035806e-03  8.7485000281795587e-03  1.0756163984431558e-02  1.2646799651314071e-02  1.4399649487061367e-02  1.5995395397907199e-02  1.7416380880816509e-02  1.8646820782443469e-02  1.9672994790070474e-02  2.0483420531273756e-02  2.1069002161377436e-02  2.1423150583283333e-02  2.1541871970521907e-02  2.1423822024541295e-02  2.1070324342580660e-02  2.0485352336787502e-02  1.9675475251164188e-02  1.8649769889183695e-02  1.7419700613965215e-02  1.5998970948250472e-02  1.4403350633799644e-02  1.2650482281699999e-02  1.0759671753030433e-02  8.7516661740985741e-03  6.6484230546922938e-03  4.4728734016519708e-03  2.2486810753707988e-03  0.0000000000000000e+00  0.0000000000000000e+00  2.2099626132628405e-03  4.3961159637246833e-03  6.5347038665458969e-03  8.6024477515741979e-03  1.0576786019845050e-02  1.2436111191784276e-02  1.4160003257907250e-02  1.5729457036113937e-02  1.7127100718153650e-02  1.8337402226201168e-02  1.9346859570473302e-02  2.0144171161443073e-02  2.0720382029340498e-02  2.1069002161377436e-02  2.1186093681517394e-02  2.1070324342580687e-02  2.0722985728305682e-02  2.0147975608742930e-02  1.9351744980011763e-02  1.8343211369064080e-02  1.7133640919355306e-02  1.5736502528680831e-02  1.4167297837214776e-02  1.2443371134577963e-02  1.0583703265743019e-02  8.6086933865600016e-03  6.5399319918554881e-03  4.3999680708723433e-03  2.2120726063500858e-03  0.0000000000000000e+00  0.0000000000000000e+00  2.1480509147232146e-03  4.2730471788768581e-03  6.3518912660769150e-03  8.3619486326955463e-03  1.0281280660239802e-02  1.2088875398228114e-02  1.3764874563193225e-02  1.5290794668441968e-02  1.6649739559505383e-02  1.7826601085020009e-02  1.8808244212945538e-02  1.9583672667993376e-02  2.0144171161443070e-02  2.0483420531273749e-02  2.0597582607207780e-02  2.0485352336787520e-02  2.0147975608742926e-02  1.9589232225625131e-02  1.8815384535110023e-02  1.7835093250804460e-02  1.6659302904572709e-02  1.5301100109531294e-02  1.3775548328447327e-02  1.2099503109411843e-02  1.0291411765223229e-02  8.3711012535262388e-03  6.3595576005599985e-03  4.2786996580531757e-03  2.1511493573659218e-03  0.0000000000000000e+00  0.0000000000000000e+00  2.0625810176211415e-03  4.1031136234325949e-03  6.0994115386340747e-03  8.0297319126375090e-03  9.8729993364843928e-03  1.1609027664501092e-02  1.3218738166275515e-02  1.4684371984362721e-02  1.5989694301411082e-02  1.7120187095898749e-02  1.8063226958688977e-02  1.8808244212945534e-02  1.9346859570473281e-02  1.9672994790070456e-02  1.9782954276791699e-02  1.9675475251164205e-02  1.9351744980011760e-02  1.8815384535110020e-02  1.8072399561488220e-02  1.7131099519172976e-02  1.6001987739225936e-02  1.4697625345752996e-02  1.3232472594498831e-02  1.1622711439732866e-02  9.8860531601468668e-03  8.0415346687178445e-03  6.1093067374322655e-03  4.1104168371141015e-03  2.0665886874051396e-03  0.0000000000000000e+00  0.0000000000000000e+00  1.9545191292291851e-03  3.8882359639992362e-03  5.7801174632221199e-03  7.6095498359816886e-03  9.3565512259586731e-03  1.1001982194823104e-02  1.2527752620090940e-02  1.3917023118721920e-02  1.5154398567895687e-02  1.6226110792514622e-02  1.7120187095898756e-02  1.7826601085020013e-02  1.8337402226201168e-02  1.8646820782443462e-02  1.8751345228254692e-02  1.8649769889183699e-02  1.8343211369064083e-02  1.7835093250804467e-02  1.7131099519172976e-02  1.6239098085672182e-02  1.5169036628732063e-02  1.3932813639031360e-02  1.2544128036636910e-02  1.1018310979361644e-02  9.3721435063121809e-03  7.6236634731003620e-03  5.7919648690709438e-03  3.8969921085727794e-03  1.9593313122806479e-03  0.0000000000000000e+00  0.0000000000000000e+00  1.8250816931672223e-03  3.6308326437686435e-03  5.3976017033897919e-03  7.1061285583582778e-03  8.7377428236731225e-03  1.0274560885249343e-02  1.1699679238452590e-02  1.2997362613917830e-02  1.4153224672273548e-02  1.5154398567895699e-02  1.5989694301411096e-02  1.6649739559505394e-02  1.7127100718153671e-02  1.7416380880816519e-02  1.7514292234694140e-02  1.7419700613965215e-02  1.7133640919355302e-02  1.6659302904572730e-02  1.6001987739225964e-02  1.5169036628732091e-02  1.4169733551419983e-02  1.3015184807508087e-02  1.1718178523920434e-02  1.0293027500660251e-02  8.7553988156102470e-03  7.1221334406117954e-03  5.4110587931515391e-03  3.6407966952746226e-03  1.8305686780966789e-03  0.0000000000000000e+00  0.0000000000000000e+00  1.6757199432356250e-03  3.3337891180802142e-03  4.9561509907530762e-03  6.5251077081260973e-03  8.0235034914383531e-03  9.4349056494908174e-03  1.0743782156941155e-02  1.1935674326715578e-02  1.2997362613917837e-02  1.3917023118721934e-02  1.4684371984362741e-02  1.5290794668441991e-02  1.5729457036113961e-02  1.5995395397907217e-02  1.6085582989856365e-02  1.5998970948250466e-02  1.5736502528680835e-02  1.5301100109531313e-02  1.4697625345753033e-02  1.3932813639031396e-02  1.3015184807508112e-02  1.1954932422705572e-02  1.0763794697034734e-02  9.4549100327125900e-03  8.0426603808000235e-03  6.5425054235593964e-03  4.9708103140366083e-03  3.3446693189814053e-03  1.6817272450535285e-03  0.0000000000000000e+00  0.0000000000000000e+00  1.5081020476389888e-03  3.0004222481113353e-03  4.4606930232482843e-03  5.8729702470500253e-03  7.2217989673673579e-03  8.4923764895341869e-03  9.6707120831509459e-03  1.0743782156941148e-02  1.1699679238452595e-02  1.2527752620090947e-02  1.3218738166275525e-02  1.3764874563193235e-02  1.4160003257907257e-02  1.4399649487061385e-02  1.4481082131720613e-02  1.4403350633799640e-02  1.4167297837214786e-02  1.3775548328447344e-02  1.3232472594498881e-02  1.2544128036636940e-02  1.1718178523920453e-02  1.0763794697034748e-02  9.6915376084636875e-03  8.5132284932214683e-03  7.2418075067568165e-03  5.8911841623032531e-03  4.4760819816783521e-03  3.0118795776423644e-03  1.5144500322773499e-03  0.0000000000000000e+00  0.0000000000000000e+00  1.3240933684053437e-03  2.6344408477508839e-03  3.9167374800152064e-03  5.1569643955457845e-03  6.3415349428721599e-03  7.4574377475966824e-03  8.4923764895341782e-03  9.4349056494908035e-03  1.0274560885249332e-02  1.1001982194823101e-02  1.1609027664501097e-02  1.2088875398228121e-02  1.2436111191784281e-02  1.2646799651314078e-02  1.2718536753147203e-02  1.2650482281699996e-02  1.2443371134577969e-02  1.2099503109411861e-02  1.1622711439732905e-02  1.1018310979361675e-02  1.0293027500660282e-02  9.4549100327126056e-03  8.5132284932214735e-03  7.4783590495142013e-03  6.3616596840691195e-03  5.1753383625239239e-03  3.9323160500958666e-03  2.6460866485874895e-03  1.3305757634736602e-03  0.0000000000000000e+00  0.0000000000000000e+00  1.1257354480423308e-03  2.2399034813429222e-03  3.3303126189097422e-03  4.3850194036088282e-03  5.3924527961599251e-03  6.3415349428721556e-03  7.2217989673673466e-03  8.0235034914383409e-03  8.7377428236731086e-03  9.3565512259586661e-03  9.8729993364843997e-03  1.0281280660239804e-02  1.0576786019845054e-02  1.0756163984431555e-02  1.0817365553766023e-02  1.0759671753030439e-02  1.0583703265743028e-02  1.0291411765223244e-02  9.8860531601468980e-03  9.3721435063122086e-03  8.7553988156102696e-03  8.0426603808000374e-03  7.2418075067568295e-03  6.3616596840691273e-03  5.4118702649019823e-03  4.4028136321951922e-03  3.3454677500940047e-03  2.2512939410233731e-03  1.1321158659634517e-03  0.0000000000000000e+00  0.0000000000000000e+00  9.1522451604931262e-04  1.8211747664609690e-03  2.7078989486053373e-03  3.5656568537230536e-03  4.3850194036088265e-03  5.1569643955457810e-03  5.8729702470500149e-03  6.5251077081260817e-03  7.1061285583582656e-03  7.6095498359816808e-03  8.0297319126375159e-03  8.3619486326955515e-03  8.6024477515742014e-03  8.7485000281795604e-03  8.7984355488531715e-03  8.7516661740985723e-03  8.6086933865600051e-03  8.3711012535262492e-03  8.0415346687178636e-03  7.6236634731003802e-03  7.1221334406118102e-03  6.5425054235594086e-03  5.8911841623032618e