<?xml version="1.0"?>
<VTKFile type="UnstructuredGrid"  version="0.1"  >
<UnstructuredGrid>
<Piece  NumberOfPoints="961" NumberOfCells="1800">
<Points>
<DataArray  type="Float64"  NumberOfComponents="3"  format="ascii">-2 -2 0  -1.866666666666667 -2 0  -1.733333333333333 -2 0  -1.6 -2 0  -1.466666666666667 -2 0  -1.333333333333333 -2 0  -1.2 -2 0  -1.066666666666667 -2 0  -0.9333333333333333 -2 0  -0.8 -2 0  -0.6666666666666667 -2 0  -0.5333333333333334 -2 0  -0.3999999999999999 -2 0  -0.2666666666666666 -2 0  -0.1333333333333333 -2 0  0 -2 0  0.1333333333333333 -2 0  0.2666666666666666 -2 0  0.3999999999999999 -2 0  0.5333333333333332 -2 0  0.6666666666666665 -2 0  0.7999999999999998 -2 0  0.9333333333333331 -2 0  1.066666666666667 -2 0  1.2 -2 0  1.333333333333333 -2 0  1.466666666666667 -2 0  1.6 -2 0  1.733333333333333 -2 0  1.866666666666667 -2 0  2 -2 0  -2 -1.866666666666667 0  -1.866666666666667 -1.866666666666667 0  -1.733333333333333 -1.866666666666667 0  -1.6 -1.866666666666667 0  -1.466666666666667 -1.866666666666667 0  -1.333333333333333 -1.866666666666667 0  -1.2 -1.866666666666667 0  -1.066666666666667 -1.866666666666667 0  -0.9333333333333333 -1.866666666666667 0  -0.8 -1.866666666666667 0  -0.6666666666666667 -1.866666666666667 0  -0.5333333333333334 -1.866666666666667 0  -0.3999999999999999 -1.866666666666667 0  -0.2666666666666666 -1.866666666666667 0  -0.1333333333333333 -1.866666666666667 0  0 -1.866666666666667 0  0.1333333333333333 -1.866666666666667 0  0.2666666666666666 -1.866666666666667 0  0.3999999999999999 -1.866666666666667 0  0.5333333333333332 -1.866666666666667 0  0.6666666666666665 -1.866666666666667 0  0.7999999999999998 -1.866666666666667 0  0.9333333333333331 -1.866666666666667 0  1.066666666666667 -1.866666666666667 0  1.2 -1.866666666666667 0  1.333333333333333 -1.866666666666667 0  1.466666666666667 -1.866666666666667 0  1.6 -1.866666666666667 0  1.733333333333333 -1.866666666666667 0  1.866666666666667 -1.866666666666667 0  2 -1.866666666666667 0  -2 -1.733333333333333 0  -1.866666666666667 -1.733333333333333 0  -1.733333333333333 -1.733333333333333 0  -1.6 -1.733333333333333 0  -1.466666666666667 -1.733333333333333 0  -1.333333333333333 -1.733333333333333 0  -1.2 -1.733333333333333 0  -1.066666666666667 -1.733333333333333 0  -0.9333333333333333 -1.733333333333333 0  -0.8 -1.733333333333333 0  -0.6666666666666667 -1.733333333333333 0  -0.5333333333333334 -1.733333333333333 0  -0.3999999999999999 -1.733333333333333 0  -0.2666666666666666 -1.733333333333333 0  -0.1333333333333333 -1.733333333333333 0  0 -1.733333333333333 0  0.1333333333333333 -1.733333333333333 0  0.2666666666666666 -1.733333333333333 0  0.3999999999999999 -1.733333333333333 0  0.5333333333333332 -1.733333333333333 0  0.6666666666666665 -1.733333333333333 0  0.7999999999999998 -1.733333333333333 0  0.9333333333333331 -1.733333333333333 0  1.066666666666667 -1.733333333333333 0  1.2 -1.733333333333333 0  1.333333333333333 -1.733333333333333 0  1.466666666666667 -1.733333333333333 0  1.6 -1.733333333333333 0  1.733333333333333 -1.733333333333333 0  1.866666666666667 -1.733333333333333 0  2 -1.733333333333333 0  -2 -1.6 0  -1.866666666666667 -1.6 0  -1.733333333333333 -1.6 0  -1.6 -1.6 0  -1.466666666666667 -1.6 0  -1.333333333333333 -1.6 0  -1.2 -1.6 0  -1.066666666666667 -1.6 0  -0.9333333333333333 -1.6 0  -0.8 -1.6 0  -0.6666666666666667 -1.6 0  -0.5333333333333334 -1.6 0  -0.3999999999999999 -1.6 0  -0.2666666666666666 -1.6 0  -0.1333333333333333 -1.6 0  0 -1.6 0  0.1333333333333333 -1.6 0  0.2666666666666666 -1.6 0  0.3999999999999999 -1.6 0  0.5333333333333332 -1.6 0  0.6666666666666665 -1.6 0  0.7999999999999998 -1.6 0  0.9333333333333331 -1.6 0  1.066666666666667 -1.6 0  1.2 -1.6 0  1.333333333333333 -1.6 0  1.466666666666667 -1.6 0  1.6 -1.6 0  1.733333333333333 -1.6 0  1.866666666666667 -1.6 0  2 -1.6 0  -2 -1.466666666666667 0  -1.866666666666667 -1.466666666666667 0  -1.733333333333333 -1.466666666666667 0  -1.6 -1.466666666666667 0  -1.466666666666667 -1.466666666666667 0  -1.333333333333333 -1.466666666666667 0  -1.2 -1.466666666666667 0  -1.066666666666667 -1.466666666666667 0  -0.9333333333333333 -1.466666666666667 0  -0.8 -1.466666666666667 0  -0.6666666666666667 -1.466666666666667 0  -0.5333333333333334 -1.466666666666667 0  -0.3999999999999999 -1.466666666666667 0  -0.2666666666666666 -1.466666666666667 0  -0.1333333333333333 -1.466666666666667 0  0 -1.466666666666667 0  0.1333333333333333 -1.466666666666667 0  0.2666666666666666 -1.466666666666667 0  0.3999999999999999 -1.466666666666667 0  0.5333333333333332 -1.466666666666667 0  0.6666666666666665 -1.466666666666667 0  0.7999999999999998 -1.466666666666667 0  0.9333333333333331 -1.466666666666667 0  1.066666666666667 -1.466666666666667 0  1.2 -1.466666666666667 0  1.333333333333333 -1.466666666666667 0  1.466666666666667 -1.466666666666667 0  1.6 -1.466666666666667 0  1.733333333333333 -1.466666666666667 0  1.866666666666667 -1.466666666666667 0  2 -1.466666666666667 0  -2 -1.333333333333333 0  -1.866666666666667 -1.333333333333333 0  -1.733333333333333 -1.333333333333333 0  -1.6 -1.333333333333333 0  -1.466666666666667 -1.333333333333333 0  -1.333333333333333 -1.333333333333333 0  -1.2 -1.333333333333333 0  -1.066666666666667 -1.333333333333333 0  -0.9333333333333333 -1.333333333333333 0  -0.8 -1.333333333333333 0  -0.6666666666666667 -1.333333333333333 0  -0.5333333333333334 -1.333333333333333 0  -0.3999999999999999 -1.333333333333333 0  -0.2666666666666666 -1.333333333333333 0  -0.1333333333333333 -1.333333333333333 0  0 -1.333333333333333 0  0.1333333333333333 -1.333333333333333 0  0.2666666666666666 -1.333333333333333 0  0.3999999999999999 -1.333333333333333 0  0.5333333333333332 -1.333333333333333 0  0.6666666666666665 -1.333333333333333 0  0.7999999999999998 -1.333333333333333 0  0.9333333333333331 -1.333333333333333 0  1.066666666666667 -1.333333333333333 0  1.2 -1.333333333333333 0  1.333333333333333 -1.333333333333333 0  1.466666666666667 -1.333333333333333 0  1.6 -1.333333333333333 0  1.733333333333333 -1.333333333333333 0  1.866666666666667 -1.333333333333333 0  2 -1.333333333333333 0  -2 -1.2 0  -1.866666666666667 -1.2 0  -1.733333333333333 -1.2 0  -1.6 -1.2 0  -1.466666666666667 -1.2 0  -1.333333333333333 -1.2 0  -1.2 -1.2 0  -1.066666666666667 -1.2 0  -0.9333333333333333 -1.2 0  -0.8 -1.2 0  -0.6666666666666667 -1.2 0  -0.5333333333333334 -1.2 0  -0.3999999999999999 -1.2 0  -0.2666666666666666 -1.2 0  -0.1333333333333333 -1.2 0  0 -1.2 0  0.1333333333333333 -1.2 0  0.2666666666666666 -1.2 0  0.3999999999999999 -1.2 0  0.5333333333333332 -1.2 0  0.6666666666666665 -1.2 0  0.7999999999999998 -1.2 0  0.9333333333333331 -1.2 0  1.066666666666667 -1.2 0  1.2 -1.2 0  1.333333333333333 -1.2 0  1.466666666666667 -1.2 0  1.6 -1.2 0  1.733333333333333 -1.2 0  1.866666666666667 -1.2 0  2 -1.2 0  -2 -1.066666666666667 0  -1.866666666666667 -1.066666666666667 0  -1.733333333333333 -1.066666666666667 0  -1.6 -1.066666666666667 0  -1.466666666666667 -1.066666666666667 0  -1.333333333333333 -1.066666666666667 0  -1.2 -1.066666666666667 0  -1.066666666666667 -1.066666666666667 0  -0.9333333333333333 -1.066666666666667 0  -0.8 -1.066666666666667 0  -0.6666666666666667 -1.066666666666667 0  -0.5333333333333334 -1.066666666666667 0  -0.3999999999999999 -1.066666666666667 0  -0.2666666666666666 -1.066666666666667 0  -0.1333333333333333 -1.066666666666667 0  0 -1.066666666666667 0  0.1333333333333333 -1.066666666666667 0  0.2666666666666666 -1.066666666666667 0  0.3999999999999999 -1.066666666666667 0  0.5333333333333332 -1.066666666666667 0  0.6666666666666665 -1.066666666666667 0  0.7999999999999998 -1.066666666666667 0  0.9333333333333331 -1.066666666666667 0  1.066666666666667 -1.066666666666667 0  1.2 -1.066666666666667 0  1.333333333333333 -1.066666666666667 0  1.466666666666667 -1.066666666666667 0  1.6 -1.066666666666667 0  1.733333333333333 -1.066666666666667 0  1.866666666666667 -1.066666666666667 0  2 -1.066666666666667 0  -2 -0.9333333333333333 0  -1.866666666666667 -0.9333333333333333 0  -1.733333333333333 -0.9333333333333333 0  -1.6 -0.9333333333333333 0  -1.466666666666667 -0.9333333333333333 0  -1.333333333333333 -0.9333333333333333 0  -1.2 -0.9333333333333333 0  -1.066666666666667 -0.9333333333333333 0  -0.9333333333333333 -0.9333333333333333 0  -0.8 -0.9333333333333333 0  -0.6666666666666667 -0.9333333333333333 0  -0.5333333333333334 -0.9333333333333333 0  -0.3999999999999999 -0.9333333333333333 0  -0.2666666666666666 -0.9333333333333333 0  -0.1333333333333333 -0.9333333333333333 0  0 -0.9333333333333333 0  0.1333333333333333 -0.9333333333333333 0  0.2666666666666666 -0.9333333333333333 0  0.3999999999999999 -0.9333333333333333 0  0.5333333333333332 -0.9333333333333333 0  0.6666666666666665 -0.9333333333333333 0  0.7999999999999998 -0.9333333333333333 0  0.9333333333333331 -0.9333333333333333 0  1.066666666666667 -0.9333333333333333 0  1.2 -0.9333333333333333 0  1.333333333333333 -0.9333333333333333 0  1.466666666666667 -0.9333333333333333 0  1.6 -0.9333333333333333 0  1.733333333333333 -0.9333333333333333 0  1.866666666666667 -0.9333333333333333 0  2 -0.9333333333333333 0  -2 -0.8 0  -1.866666666666667 -0.8 0  -1.733333333333333 -0.8 0  -1.6 -0.8 0  -1.466666666666667 -0.8 0  -1.333333333333333 -0.8 0  -1.2 -0.8 0  -1.066666666666667 -0.8 0  -0.9333333333333333 -0.8 0  -0.8 -0.8 0  -0.6666666666666667 -0.8 0  -0.5333333333333334 -0.8 0  -0.3999999999999999 -0.8 0  -0.2666666666666666 -0.8 0  -0.1333333333333333 -0.8 0  0 -0.8 0  0.1333333333333333 -0.8 0  0.2666666666666666 -0.8 0  0.3999999999999999 -0.8 0  0.5333333333333332 -0.8 0  0.6666666666666665 -0.8 0  0.7999999999999998 -0.8 0  0.9333333333333331 -0.8 0  1.066666666666667 -0.8 0  1.2 -0.8 0  1.333333333333333 -0.8 0  1.466666666666667 -0.8 0  1.6 -0.8 0  1.733333333333333 -0.8 0  1.866666666666667 -0.8 0  2 -0.8 0  -2 -0.6666666666666667 0  -1.866666666666667 -0.
[...]
<PointData  Scalars="f_12"> 
<DataArray  type="Float64"  Name="f_12"  format="ascii">0.0000000000000000e+00  0.0000000000000000e+00  0.0000000000000000e+00  0.0000000000000000e+00  0.0000000000000000e+00  0.0000000000000000e+00  0.0000000000000000e+00  0.0000000000000000e+00  0.0000000000000000e+00  0.0000000000000000e+00  0.0000000000000000e+00  0.0000000000000000e+00  0.0000000000000000e+00  0.0000000000000000e+00  0.0000000000000000e+00  0.0000000000000000e+00  0.0000000000000000e+00  0.0000000000000000e+00  0.0000000000000000e+00  0.0000000000000000e+00  0.0000000000000000e+00  0.0000000000000000e+00  0.0000000000000000e+00  0.0000000000000000e+00  0.0000000000000000e+00  0.0000000000000000e+00  0.0000000000000000e+00  0.0000000000000000e+00  0.0000000000000000e+00  0.0000000000000000e+00  0.0000000000000000e+00  0.0000000000000000e+00  3.2944182710517458e-04  6.5482338475250895e-04  9.7292231292780669e-04  1.2804502621746206e-03  1.5741530164170433e-03  1.8508670063735679e-03  2.1075631940673033e-03  2.3413876639916324e-03  2.5497015829934657e-03  2.7301207806480982e-03  2.8805541640409939e-03  2.9992396855207147e-03  3.0847763758877298e-03  3.1361509531320545e-03  3.1527576793726184e-03  3.1344104358074078e-03  3.0813463838401333e-03  2.9942210412715721e-03  2.8740950828774602e-03  2.7224136317299521e-03  2.5409792018647342e-03  2.3319197532494754e-03  2.0976535087900371e-03  1.8408522631716748e-03  1.5644049221491280e-03  1.2713830579994300e-03  9.6501065025460914e-04  6.4864178372881171e-04  3.2575581645090222e-04  0.0000000000000000e+00  0.0000000000000000e+00  6.5482338475250916e-04  1.3019284887372826e-03  1.9346770350063499e-03  2.5464552981123924e-03  3.1307636564246745e-03  3.6812980239900642e-03  4.1920274770339341e-03  4.6572716235702928e-03  5.0717787690737074e-03  5.4308040760379043e-03  5.7301857160200398e-03  5.9664163035953411e-03  6.1367065868480047e-03  6.2390383991842921e-03  6.2722042137267724e-03  6.2358312375695394e-03  6.1303887773509038e-03  5.9571785246964101e-03  5.7183083659721598e-03  5.4166512296960649e-03  5.0557912677756224e-03  4.6399602595838824e-03  4.1739674905342441e-03  3.6631264816481927e-03  3.1131818700881669e-03  2.5302395619021594e-03  1.9207031891575901e-03  1.2912202038507718e-03  6.4864178372881214e-04  0.0000000000000000e+00  0.0000000000000000e+00  9.7292231292780659e-04  1.9346770350063495e-03  2.8752487909528969e-03  3.7847351247280226e-03  4.6534396330022354e-03  5.4719732262700485e-03  6.2313605371229286e-03  6.9231508412040000e-03  7.5395323219378052e-03  8.0734473081481364e-03  8.5187050027333254e-03  8.8700874484002167e-03  9.1234441274899714e-03  9.2757706885661199e-03  9.3252678143936930e-03  9.2713771411725814e-03  9.1147923232717063e-03  8.8574447025101671e-03  8.5024644623604186e-03  8.0541194977819860e-03  7.5177353919218346e-03  6.8996007635483301e-03  6.2068627669751479e-03  5.4474176618286851e-03  4.6298011390387885e-03  3.7630825461558220e-03  2.8567663622141863e-03  1.9207031891575912e-03  9.6501065025460979e-04  0.0000000000000000e+00  0.0000000000000000e+00  1.2804502621746208e-03  2.5464552981123920e-03  3.7847351247280209e-03  4.9821943882854105e-03  6.1260326078402668e-03  7.2038675553423304e-03  8.2038691927732738e-03  9.1149021940038540e-03  9.9266744224088873e-03  1.0629887561559278e-02  1.1216384938158273e-02  1.1679290734949414e-02  1.2013134423545324e-02  1.2213954418768476e-02  1.2279375665309742e-02  1.2208657056372566e-02  1.2002706147860467e-02  1.1664060430447118e-02  1.1196836293662258e-02  1.0606648593001616e-02  9.9005052553248433e-03  9.0866824972566703e-03  8.1745868918614364e-03  7.1746106525121560e-03  6.0979861084735658e-03  4.9566444587337945e-03  3.7630825461558259e-03  2.5302395619021612e-03  1.2713830579994308e-03  0.0000000000000000e+00  0.0000000000000000e+00  1.5741530164170440e-03  3.1307636564246745e-03  4.6534396330022371e-03  6.1260326078402686e-03  7.5327708849572024e-03  8.8584068227037238e-03  1.0088377942090401e-02  1.1208979668352083e-02  1.2207546279895247e-02  1.3072635125944646e-02  1.3794207809330725e-02  1.4363801063497147e-02  1.4774679648270150e-02  1.5021963828570321e-02  1.5102724887857090e-02  1.5016043597818012e-02  1.4763028492629176e-02  1.4346793009798115e-02  1.3772392862021206e-02  1.3046727189089788e-02  1.2178408910724662e-02  1.1177611095593433e-02  1.0055896959327047e-02  8.8260412407239648e-03  7.5018501730830887e-03  6.0979861084735710e-03  4.6298011390387937e-03  3.1131818700881708e-03  1.5644049221491296e-03  0.0000000000000000e+00  0.0000000000000000e+00  1.8508670063735705e-03  3.6812980239900668e-03  5.4719732262700528e-03  7.2038675553423347e-03  8.8584068227037255e-03  1.0417639473119151e-02  1.1864424161933737e-02  1.3182631284644647e-02  1.4357354568264839e-02  1.5375126888089712e-02  1.6224132825456313e-02  1.6894409346215219e-02  1.7378025515831102e-02  1.7669232459273477e-02  1.7764575824275351e-02  1.7662964738431385e-02  1.7365693518284597e-02  1.6876414992886585e-02  1.6201067012819061e-02  1.5347756285358153e-02  1.4326605877449449e-02  1.3149574365582091e-02  1.1830255543735273e-02  1.0383667750800175e-02  8.8260412407239683e-03  7.1746106525121594e-03  5.4474176618286851e-03  3.6631264816481953e-03  1.8408522631716765e-03  0.0000000000000000e+00  0.0000000000000000e+00  2.1075631940673059e-03  4.1920274770339376e-03  6.2313605371229373e-03  8.2038691927732808e-03  1.0088377942090408e-02  1.1864424161933746e-02  1.3512470826453729e-02  1.5014135056019545e-02  1.6352428267569181e-02  1.7512001347329893e-02  1.8479386326337950e-02  1.9243224719942800e-02  1.9794472155355597e-02  2.0126569241184195e-02  2.0235569827831822e-02  2.0120219779038547e-02  1.9781981956797805e-02  1.9225006087919261e-02  1.8456045266050748e-02  1.7484323771216850e-02  1.6321363397709093e-02  1.4980777348101961e-02  1.3478041814691094e-02  1.1830255543735282e-02  1.0055896959327064e-02  8.1745868918614364e-03  6.2068627669751436e-03  4.1739674905342432e-03  2.0976535087900380e-03  0.0000000000000000e+00  0.0000000000000000e+00  2.3413876639916380e-03  4.6572716235703023e-03  6.9231508412040191e-03  9.1149021940038766e-03  1.1208979668352098e-02  1.3182631284644662e-02  1.5014135056019548e-02  1.6683052379358857e-02  1.8170494333480117e-02  1.9459393665768415e-02  2.0534773039012133e-02  2.1383998613275165e-02  2.1997007423090534e-02  2.2366497366156663e-02  2.2488069940500292e-02  2.2360318052873300e-02  2.1984854087204325e-02  2.1366276716582630e-02  2.0512078371550998e-02  1.9432498533785165e-02  1.8140330816050286e-02  1.6650693869442439e-02  1.4980777348101972e-02  1.3149574365582095e-02  1.1177611095593440e-02  9.0866824972566738e-03  6.8996007635483275e-03  4.6399602595838824e-03  2.3319197532494780e-03  0.0000000000000000e+00  0.0000000000000000e+00  2.5497015829934718e-03  5.0717787690737213e-03  7.5395323219378313e-03  9.9266744224089307e-03  1.2207546279895279e-02  1.4357354568264865e-02  1.6352428267569191e-02  1.8170494333480135e-02  1.9790967395451834e-02  2.1195245706549699e-02  2.2367003124213476e-02  2.3292465243340558e-02  2.3960657114174132e-02  2.4363610351077779e-02  2.4496518866641274e-02  2.4357834839062221e-02  2.3949299637845905e-02  2.3275908019431964e-02  2.2345807640214647e-02  2.1170139484422340e-02  1.9762827850839687e-02  1.8140330816050300e-02  1.6321363397709107e-02  1.4326605877449461e-02  1.2178408910724680e-02  9.9005052553248589e-03  7.5177353919218442e-03  5.0557912677756337e-03  2.5409792018647403e-03  0.0000000000000000e+00  0.0000000000000000e+00  2.7301207806481047e-03  5.4308040760379156e-03  8.0734473081481642e-03  1.0629887561559314e-02  1.3072635125944695e-02  1.5375126888089745e-02  1.7512001347329904e-02  1.9459393665768418e-02  2.1195245706549706e-02  2.2699622802442837e-02  2.3955026355893427e-02  2.4946689574391338e-02  2.5662842888919589e-02  2.6094935988500687e-02  2.6237804921882126e-02  2.6089775250657685e-02  2.5652695570797572e-02  2.4931899558164414e-02  2.3936098695264724e-02  2.2677211642222611e-02  2.1170139484422364e-02  1.9432498533785203e-02  1.7484323771216882e-02  1.5347756285358180e-02  1.3046727189089813e-02  1.0606648593001644e-02  8.0541194977820068e-03  5.4166512296960831e-03  2.7224136317299630e-03  0.0000000000000000e+00  0.0000000000000000e+00  2.8805541640410000e-03  5.7301857160200510e-03  8.5187050027333462e-03  1.1216384938158302e-02  1.3794207809330763e-02  1.6224132825456355e-02  1.8479386326337961e-02  2.0534773039012147e-02  2.2367003124213469e-02  2.3955026355893434e-02  2.5280361974561776e-02  2.6327410841704972e-02  2.7083735708462727e-02  2.7540295803827348e-02  2.7691623537450569e-02  2.7535933776103704e-02  2.7075159663562234e-02  2.6314913001717035e-02  2.5264371434343597e-02  2.3936098695264748e-02  2.2345807640214720e-02  2.0512078371551078e-02  1.8456045266050790e-02  1.6201067012819110e-02  1.3772392862021247e-02  1.1196836293662301e-02  8.5024644623604480e-03  5.7183083659721867e-03  2.8740950828774745e-03  0.0000000000000000e+00  0.0000000000000000e+00  2.9992396855207182e-03  5.9664163035953489e-03  8.8700874484002341e-03  1.1679290734949435e-02  1.4363801063497184e-02  1.6894409346215243e-02  1.9243224719942800e-02  2.1383998613275165e-02  2.3292465243340558e-02  2.4946689574391348e-02  2.6327410841704965e-02  2.7418367738313267e-02  2.8206590500085740e-02  2.8682645519308124e-02  2.8840819760445193e-02  2.8679235016375936e-02  2.8199885692884303e-02  2.7408598021729659e-02  2.6314913001717028e-02  2.4931899558164449e-02  2.3275908019432013e-02  2.1366276716582706e-02  1.9225006087919303e-02  1.6876414992886633e-02  1.4346793009798187e-02  1.1664060430447166e-02  8.8574447025102018e-03  5.9571785246964369e-03  2.9942210412715869e-03  0.0000000000000000e+00  0.0000000000000000e+00  3.0847763758877311e-03  6.1367065868480073e-03  9.1234441274899766e-03  1.2013134423545329e-02  1.4774679648270166e-02  1.7378025515831119e-02  1.9794472155355590e-02  2.1997007423090530e-02  2.3960657114174111e-02  2.5662842888919589e-02  2.7083735708462713e-02  2.8206590500085713e-02  2.9018046873040649e-02  2.9508381098695659e-02  2.9671696247722399e-02  2.9506040211341789e-02  2.9013445081217740e-02  2.8199885692884338e-02  2.7075159663562276e-02  2.5652695570797614e-02  2.3949299637845950e-02  2.1984854087204395e-02  1.9781981956797857e-02  1.7365693518284653e-02  1.4763028492629235e-02  1.2002706147860509e-02  9.1147923232717427e-03  6.1303887773509333e-03  3.0813463838401485e-03  0.0000000000000000e+00  0.0000000000000000e+00  3.1361509531320580e-03  6.2390383991842921e-03  9.2757706885661147e-03  1.2213954418768479e-02  1.5021963828570333e-02  1.7669232459273491e-02  2.0126569241184184e-02  2.2366497366156663e-02  2.4363610351077786e-02  2.6094935988500691e-02  2.7540295803827355e-02  2.8682645519308127e-02  2.9508381098695659e-02  3.0007595333625247e-02  3.0174271628375368e-02  3.0006404512072409e-02  2.9506040211341806e-02  2.8679235016375954e-02  2.7535933776103742e-02  2.6089775250657723e-02  2.4357834839062262e-02  2.2360318052873380e-02  2.0120219779038610e-02  1.7662964738431444e-02  1.5016043597818060e-02  1.2208657056372606e-02  9.2713771411726074e-03  6.2358312375695620e-03  3.1344104358074203e-03  0.0000000000000000e+00  0.0000000000000000e+00  3.1527576793726241e-03  6.2722042137267836e-03  9.3252678143936965e-03  1.2279375665309749e-02  1.5102724887857105e-02  1.7764575824275364e-02  2.0235569827831829e-02  2.2488069940500295e-02  2.4496518866641281e-02  2.6237804921882144e-02  2.7691623537450628e-02  2.8840819760445235e-02  2.9671696247722406e-02  3.0174271628375382e-02  3.0342475803231586e-02  3.0174271628375365e-02  2.9671696247722406e-02  2.8840819760445207e-02  2.7691623537450600e-02  2.6237804921882154e-02  2.4496518866641327e-02  2.2488069940500371e-02  2.0235569827831878e-02  1.7764575824275410e-02  1.5102724887857138e-02  1.2279375665309780e-02  9.3252678143937225e-03  6.2722042137267958e-03  3.1527576793726310e-03  0.0000000000000000e+00  0.0000000000000000e+00  3.1344104358074138e-03  6.2358312375695507e-03  9.2713771411725900e-03  1.2208657056372588e-02  1.5016043597818040e-02  1.7662964738431413e-02  2.0120219779038568e-02  2.2360318052873324e-02  2.4357834839062249e-02  2.6089775250657719e-02  2.7535933776103760e-02  2.8679235016375981e-02  2.9506040211341837e-02  3.0006404512072447e-02  3.0174271628375382e-02  3.0007595333625250e-02  2.9508381098695677e-02  2.8682645519308110e-02  2.7540295803827355e-02  2.6094935988500715e-02  2.4363610351077820e-02  2.2366497366156719e-02  2.0126569241184243e-02  1.7669232459273519e-02  1.5021963828570366e-02  1.2213954418768509e-02  9.2757706885661442e-03  6.2390383991843112e-03  3.1361509531320666e-03  0.0000000000000000e+00  0.0000000000000000e+00  3.0813463838401411e-03  6.1303887773509211e-03  9.1147923232717271e-03  1.2002706147860500e-02  1.4763028492629235e-02  1.7365693518284653e-02  1.9781981956797846e-02  2.1984854087204349e-02  2.3949299637845933e-02  2.5652695570797624e-02  2.7075159663562290e-02  2.8199885692884355e-02  2.9013445081217778e-02  2.9506040211341868e-02  2.9671696247722430e-02  2.9508381098695666e-02  2.9018046873040670e-02  2.8206590500085737e-02  2.7083735708462741e-02  2.5662842888919641e-02  2.3960657114174177e-02  2.1997007423090579e-02  1.9794472155355621e-02  1.7378025515831126e-02  1.4774679648270188e-02  1.2013134423545345e-02  9.1234441274899956e-03  6.1367065868480194e-03  3.0847763758877393e-03  0.0000000000000000e+00  0.0000000000000000e+00  2.9942210412715804e-03  5.9571785246964257e-03  8.8574447025101914e-03  1.1664060430447152e-02  1.4346793009798190e-02  1.6876414992886633e-02  1.9225006087919296e-02  2.1366276716582665e-02  2.3275908019431996e-02  2.4931899558164442e-02  2.6314913001717052e-02  2.7408598021729683e-02  2.8199885692884358e-02  2.8679235016375978e-02  2.8840819760445231e-02  2.8682645519308131e-02  2.8206590500085761e-02  2.7418367738313288e-02  2.6327410841704989e-02  2.4946689574391383e-02  2.3292465243340586e-02  2.1383998613275189e-02  1.9243224719942810e-02  1.6894409346215240e-02  1.4363801063497189e-02  1.1679290734949440e-02  8.8700874484002427e-03  5.9664163035953559e-03  2.9992396855207230e-03  0.0000000000000000e+00  0.0000000000000000e+00  2.8740950828774693e-03  5.7183083659721788e-03  8.5024644623604359e-03  1.1196836293662285e-02  1.3772392862021247e-02  1.6201067012819117e-02  1.8456045266050783e-02  2.0512078371551039e-02  2.2345807640214696e-02  2.3936098695264741e-02  2.5264371434343610e-02  2.6314913001717049e-02  2.7075159663562269e-02  2.7535933776103742e-02  2.7691623537450621e-02  2.7540295803827355e-02  2.7083735708462744e-02  2.6327410841704976e-02  2.5280361974561790e-02  2.3955026355893454e-02  2.2367003124213504e-02  2.0534773039012164e-02  1.8479386326337964e-02  1.6224132825456358e-02  1.3794207809330758e-02  1.1216384938158302e-02  8.5187050027333462e-03  5.7301857160200562e-03  2.8805541640410021e-03  0.0000000000000000e+00  0.0000000000000000e+00  2.7224136317299617e-03  5.4166512296960822e-03  8.0541194977820085e-03  1.0606648593001649e-02  1.3046727189089828e-02  1.5347756285358198e-02  1.7484323771216885e-02  1.9432498533785196e-02  2.1170139484422368e-02  2.2677211642222635e-02  2.3936098695264758e-02  2.4931899558164453e-02  2.5652695570797593e-02  2.6089775250657716e-02  2.6237804921882154e-02  2.6094935988500708e-02  2.5662842888919613e-02  2.4946689574391379e-02  2.3955026355893475e-02  2.2699622802442889e-02  2.1195245706549740e-02  1.9459393665768442e-02  1.7512001347329931e-02  1.5375126888089759e-02  1.3072635125944707e-02  1.0629887561559323e-02  8.0734473081481607e-03  5.4308040760379225e-03  2.7301207806481099e-03  0.0000000000000000e+00  0.0000000000000000e+00  2.5409792018647446e-03  5.0557912677756389e-03  7.5177353919218598e-03  9.9005052553248762e-03  1.2178408910724702e-02  1.4326605877449492e-02  1.6321363397709118e-02  1.8140330816050300e-02  1.9762827850839711e-02  2.1170139484422375e-02  2.2345807640214703e-02  2.3275908019432020e-02  2.3949299637845943e-02  2.4357834839062245e-02  2.4496518866641302e-02  2.4363610351077803e-02  2.3960657114174159e-02  2.3292465243340617e-02  2.2367003124213549e-02  2.1195245706549778e-02  1.9790967395451907e-02  1.8170494333480204e-02  1.6352428267569247e-02  1.4357354568264901e-02  1.2207546279895310e-02  9.9266744224089515e-03  7.5395323219378417e-03  5.0717787690737325e-03  2.5497015829934787e-03  0.0000000000000000e+00  0.0000000000000000e+00  2.3319197532494841e-03  4.6399602595838963e-03  6.8996007635483544e-03  9.0866824972567033e-03  1.1177611095593478e-02  1.3149574365582129e-02  1.4980777348101992e-02  1.6650693869442457e-02  1.8140330816050307e-02  1.9432498533785206e-02  2.0512078371551064e-02  2.1366276716582699e-02  2.1984854087204388e-02  2.2360318052873352e-02  2.2488069940500344e-02  2.2366497366156712e-02  2.1997007423090586e-02  2.1383998613275230e-02  2.0534773039012216e-02  1.9459393665768498e-02  1.8170494333480235e-02  1.6683052379358954e-02  1.5014135056019623e-02  1.3182631284644719e-02  1.1208979668352149e-02  9.1149021940039078e-03  6.9231508412040399e-03  4.6572716235703197e-03  2.3413876639916467e-03  0.0000000000000000e+00  0.0000000000000000e+00  2.0976535087900441e-03  4.1739674905342571e-03  6.2068627669751679e-03  8.1745868918614642e-03  1.0055896959327086e-02  1.1830255543735305e-02  1.3478041814691120e-02  1.4980777348101972e-02  1.6321363397709111e-02  1.7484323771216885e-02  1.8456045266050797e-02  1.9225006087919307e-02  1.9781981956797846e-02  2.0120219779038589e-02  2.0235569827831864e-02  2.0126569241184226e-02  1.9794472155355628e-02  1.9243224719942848e-02  1.8479386326338023e-02  1.7512001347329973e-02  1.6352428267569271e-02  1.5014135056019635e-02  1.3512470826453803e-02  1.1864424161933803e-02  1.0088377942090446e-02  8.2038691927733103e-03  6.2313605371229572e-03  4.1920274770339515e-03  2.1075631940673128e-03  0.0000000000000000e+00  0.0000000000000000e+00  1.8408522631716811e-03  3.6631264816482053e-03  5.4474176618287051e-03  7.1746106525121776e-03  8.8260412407239908e-03  1.0383667750800199e-02  1.1830255543735291e-02  1.3149574365582100e-02  1.4326605877449473e-02  1.5347756285358184e-02  1.6201067012819120e-02  1.6876414992886637e-02  1.7365693518284653e-02  1.7662964738431427e-02  1.7764575824275396e-02  1.7669232459273519e-02  1.7378025515831140e-02  1.6894409346215278e-02  1.6224132825456403e-02  1.5375126888089806e-02  1.4357354568264940e-02  1.3182631284644739e-02  1.1864424161933807e-02  1.0417639473119201e-02  8.8584068227037550e-03  7.2038675553423607e-03  5.4719732262700684e-03  3.6812980239900785e-03  1.8508670063735755e-03  0.0000000000000000e+00  0.0000000000000000e+00  1.5644049221491322e-03  3.1131818700881777e-03  4.6298011390388050e-03  6.0979861084735857e-03  7.5018501730831078e-03  8.8260412407239822e-03  1.0055896959327064e-02  1.1177611095593447e-02  1.2178408910724683e-02  1.3046727189089813e-02  1.3772392862021244e-02  1.4346793009798181e-02  1.4763028492629227e-02  1.5016043597818045e-02  1.5102724887857129e-02  1.5021963828570377e-02  1.4774679648270209e-02  1.4363801063497213e-02  1.3794207809330801e-02  1.3072635125944755e-02  1.2207546279895351e-02  1.1208979668352177e-02  1.0088377942090465e-02  8.8584068227037724e-03  7.5327708849572319e-03  6.1260326078402894e-03  4.6534396330022510e-03  3.1307636564246845e-03  1.5741530164170485e-03  0.0000000000000000e+00  0.0000000000000000e+00  1.2713830579994334e-03  2.5302395619021673e-03  3.7630825461558342e-03  4.9566444587338067e-03  6.0979861084735822e-03  7.1746106525121742e-03  8.1745868918614503e-03  9.0866824972566825e-03  9.9005052553248589e-03  1.0606648593001641e-02  1.1196836293662296e-02  1.1664060430447163e-02  1.2002706147860512e-02  1.2208657056372599e-02  1.2279375665309771e-02  1.2213954418768510e-02  1.2013134423545360e-02  1.1679290734949463e-02  1.1216384938158332e-02  1.0629887561559354e-02  9.9266744224089844e-03  9.1149021940039304e-03  8.2038691927733224e