<?xml version="1.0"?>
<VTKFile type="UnstructuredGrid"  version="0.1"  >
<UnstructuredGrid>
<Piece  NumberOfPoints="961" NumberOfCells="1800">
<Points>
<DataArray  type="Float64"  NumberOfComponents="3"  format="ascii">-2 -2 0  -1.866666666666667 -2 0  -1.733333333333333 -2 0  -1.6 -2 0  -1.466666666666667 -2 0  -1.333333333333333 -2 0  -1.2 -2 0  -1.066666666666667 -2 0  -0.9333333333333333 -2 0  -0.8 -2 0  -0.6666666666666667 -2 0  -0.5333333333333334 -2 0  -0.3999999999999999 -2 0  -0.2666666666666666 -2 0  -0.1333333333333333 -2 0  0 -2 0  0.1333333333333333 -2 0  0.2666666666666666 -2 0  0.3999999999999999 -2 0  0.5333333333333332 -2 0  0.6666666666666665 -2 0  0.7999999999999998 -2 0  0.9333333333333331 -2 0  1.066666666666667 -2 0  1.2 -2 0  1.333333333333333 -2 0  1.466666666666667 -2 0  1.6 -2 0  1.733333333333333 -2 0  1.866666666666667 -2 0  2 -2 0  -2 -1.866666666666667 0  -1.866666666666667 -1.866666666666667 0  -1.733333333333333 -1.866666666666667 0  -1.6 -1.866666666666667 0  -1.466666666666667 -1.866666666666667 0  -1.333333333333333 -1.866666666666667 0  -1.2 -1.866666666666667 0  -1.066666666666667 -1.866666666666667 0  -0.9333333333333333 -1.866666666666667 0  -0.8 -1.866666666666667 0  -0.6666666666666667 -1.866666666666667 0  -0.5333333333333334 -1.866666666666667 0  -0.3999999999999999 -1.866666666666667 0  -0.2666666666666666 -1.866666666666667 0  -0.1333333333333333 -1.866666666666667 0  0 -1.866666666666667 0  0.1333333333333333 -1.866666666666667 0  0.2666666666666666 -1.866666666666667 0  0.3999999999999999 -1.866666666666667 0  0.5333333333333332 -1.866666666666667 0  0.6666666666666665 -1.866666666666667 0  0.7999999999999998 -1.866666666666667 0  0.9333333333333331 -1.866666666666667 0  1.066666666666667 -1.866666666666667 0  1.2 -1.866666666666667 0  1.333333333333333 -1.866666666666667 0  1.466666666666667 -1.866666666666667 0  1.6 -1.866666666666667 0  1.733333333333333 -1.866666666666667 0  1.866666666666667 -1.866666666666667 0  2 -1.866666666666667 0  -2 -1.733333333333333 0  -1.866666666666667 -1.733333333333333 0  -1.733333333333333 -1.733333333333333 0  -1.6 -1.733333333333333 0  -1.466666666666667 -1.733333333333333 0  -1.333333333333333 -1.733333333333333 0  -1.2 -1.733333333333333 0  -1.066666666666667 -1.733333333333333 0  -0.9333333333333333 -1.733333333333333 0  -0.8 -1.733333333333333 0  -0.6666666666666667 -1.733333333333333 0  -0.5333333333333334 -1.733333333333333 0  -0.3999999999999999 -1.733333333333333 0  -0.2666666666666666 -1.733333333333333 0  -0.1333333333333333 -1.733333333333333 0  0 -1.733333333333333 0  0.1333333333333333 -1.733333333333333 0  0.2666666666666666 -1.733333333333333 0  0.3999999999999999 -1.733333333333333 0  0.5333333333333332 -1.733333333333333 0  0.6666666666666665 -1.733333333333333 0  0.7999999999999998 -1.733333333333333 0  0.9333333333333331 -1.733333333333333 0  1.066666666666667 -1.733333333333333 0  1.2 -1.733333333333333 0  1.333333333333333 -1.733333333333333 0  1.466666666666667 -1.733333333333333 0  1.6 -1.733333333333333 0  1.733333333333333 -1.733333333333333 0  1.866666666666667 -1.733333333333333 0  2 -1.733333333333333 0  -2 -1.6 0  -1.866666666666667 -1.6 0  -1.733333333333333 -1.6 0  -1.6 -1.6 0  -1.466666666666667 -1.6 0  -1.333333333333333 -1.6 0  -1.2 -1.6 0  -1.066666666666667 -1.6 0  -0.9333333333333333 -1.6 0  -0.8 -1.6 0  -0.6666666666666667 -1.6 0  -0.5333333333333334 -1.6 0  -0.3999999999999999 -1.6 0  -0.2666666666666666 -1.6 0  -0.1333333333333333 -1.6 0  0 -1.6 0  0.1333333333333333 -1.6 0  0.2666666666666666 -1.6 0  0.3999999999999999 -1.6 0  0.5333333333333332 -1.6 0  0.6666666666666665 -1.6 0  0.7999999999999998 -1.6 0  0.9333333333333331 -1.6 0  1.066666666666667 -1.6 0  1.2 -1.6 0  1.333333333333333 -1.6 0  1.466666666666667 -1.6 0  1.6 -1.6 0  1.733333333333333 -1.6 0  1.866666666666667 -1.6 0  2 -1.6 0  -2 -1.466666666666667 0  -1.866666666666667 -1.466666666666667 0  -1.733333333333333 -1.466666666666667 0  -1.6 -1.466666666666667 0  -1.466666666666667 -1.466666666666667 0  -1.333333333333333 -1.466666666666667 0  -1.2 -1.466666666666667 0  -1.066666666666667 -1.466666666666667 0  -0.9333333333333333 -1.466666666666667 0  -0.8 -1.466666666666667 0  -0.6666666666666667 -1.466666666666667 0  -0.5333333333333334 -1.466666666666667 0  -0.3999999999999999 -1.466666666666667 0  -0.2666666666666666 -1.466666666666667 0  -0.1333333333333333 -1.466666666666667 0  0 -1.466666666666667 0  0.1333333333333333 -1.466666666666667 0  0.2666666666666666 -1.466666666666667 0  0.3999999999999999 -1.466666666666667 0  0.5333333333333332 -1.466666666666667 0  0.6666666666666665 -1.466666666666667 0  0.7999999999999998 -1.466666666666667 0  0.9333333333333331 -1.466666666666667 0  1.066666666666667 -1.466666666666667 0  1.2 -1.466666666666667 0  1.333333333333333 -1.466666666666667 0  1.466666666666667 -1.466666666666667 0  1.6 -1.466666666666667 0  1.733333333333333 -1.466666666666667 0  1.866666666666667 -1.466666666666667 0  2 -1.466666666666667 0  -2 -1.333333333333333 0  -1.866666666666667 -1.333333333333333 0  -1.733333333333333 -1.333333333333333 0  -1.6 -1.333333333333333 0  -1.466666666666667 -1.333333333333333 0  -1.333333333333333 -1.333333333333333 0  -1.2 -1.333333333333333 0  -1.066666666666667 -1.333333333333333 0  -0.9333333333333333 -1.333333333333333 0  -0.8 -1.333333333333333 0  -0.6666666666666667 -1.333333333333333 0  -0.5333333333333334 -1.333333333333333 0  -0.3999999999999999 -1.333333333333333 0  -0.2666666666666666 -1.333333333333333 0  -0.1333333333333333 -1.333333333333333 0  0 -1.333333333333333 0  0.1333333333333333 -1.333333333333333 0  0.2666666666666666 -1.333333333333333 0  0.3999999999999999 -1.333333333333333 0  0.5333333333333332 -1.333333333333333 0  0.6666666666666665 -1.333333333333333 0  0.7999999999999998 -1.333333333333333 0  0.9333333333333331 -1.333333333333333 0  1.066666666666667 -1.333333333333333 0  1.2 -1.333333333333333 0  1.333333333333333 -1.333333333333333 0  1.466666666666667 -1.333333333333333 0  1.6 -1.333333333333333 0  1.733333333333333 -1.333333333333333 0  1.866666666666667 -1.333333333333333 0  2 -1.333333333333333 0  -2 -1.2 0  -1.866666666666667 -1.2 0  -1.733333333333333 -1.2 0  -1.6 -1.2 0  -1.466666666666667 -1.2 0  -1.333333333333333 -1.2 0  -1.2 -1.2 0  -1.066666666666667 -1.2 0  -0.9333333333333333 -1.2 0  -0.8 -1.2 0  -0.6666666666666667 -1.2 0  -0.5333333333333334 -1.2 0  -0.3999999999999999 -1.2 0  -0.2666666666666666 -1.2 0  -0.1333333333333333 -1.2 0  0 -1.2 0  0.1333333333333333 -1.2 0  0.2666666666666666 -1.2 0  0.3999999999999999 -1.2 0  0.5333333333333332 -1.2 0  0.6666666666666665 -1.2 0  0.7999999999999998 -1.2 0  0.9333333333333331 -1.2 0  1.066666666666667 -1.2 0  1.2 -1.2 0  1.333333333333333 -1.2 0  1.466666666666667 -1.2 0  1.6 -1.2 0  1.733333333333333 -1.2 0  1.866666666666667 -1.2 0  2 -1.2 0  -2 -1.066666666666667 0  -1.866666666666667 -1.066666666666667 0  -1.733333333333333 -1.066666666666667 0  -1.6 -1.066666666666667 0  -1.466666666666667 -1.066666666666667 0  -1.333333333333333 -1.066666666666667 0  -1.2 -1.066666666666667 0  -1.066666666666667 -1.066666666666667 0  -0.9333333333333333 -1.066666666666667 0  -0.8 -1.066666666666667 0  -0.6666666666666667 -1.066666666666667 0  -0.5333333333333334 -1.066666666666667 0  -0.3999999999999999 -1.066666666666667 0  -0.2666666666666666 -1.066666666666667 0  -0.1333333333333333 -1.066666666666667 0  0 -1.066666666666667 0  0.1333333333333333 -1.066666666666667 0  0.2666666666666666 -1.066666666666667 0  0.3999999999999999 -1.066666666666667 0  0.5333333333333332 -1.066666666666667 0  0.6666666666666665 -1.066666666666667 0  0.7999999999999998 -1.066666666666667 0  0.9333333333333331 -1.066666666666667 0  1.066666666666667 -1.066666666666667 0  1.2 -1.066666666666667 0  1.333333333333333 -1.066666666666667 0  1.466666666666667 -1.066666666666667 0  1.6 -1.066666666666667 0  1.733333333333333 -1.066666666666667 0  1.866666666666667 -1.066666666666667 0  2 -1.066666666666667 0  -2 -0.9333333333333333 0  -1.866666666666667 -0.9333333333333333 0  -1.733333333333333 -0.9333333333333333 0  -1.6 -0.9333333333333333 0  -1.466666666666667 -0.9333333333333333 0  -1.333333333333333 -0.9333333333333333 0  -1.2 -0.9333333333333333 0  -1.066666666666667 -0.9333333333333333 0  -0.9333333333333333 -0.9333333333333333 0  -0.8 -0.9333333333333333 0  -0.6666666666666667 -0.9333333333333333 0  -0.5333333333333334 -0.9333333333333333 0  -0.3999999999999999 -0.9333333333333333 0  -0.2666666666666666 -0.9333333333333333 0  -0.1333333333333333 -0.9333333333333333 0  0 -0.9333333333333333 0  0.1333333333333333 -0.9333333333333333 0  0.2666666666666666 -0.9333333333333333 0  0.3999999999999999 -0.9333333333333333 0  0.5333333333333332 -0.9333333333333333 0  0.6666666666666665 -0.9333333333333333 0  0.7999999999999998 -0.9333333333333333 0  0.9333333333333331 -0.9333333333333333 0  1.066666666666667 -0.9333333333333333 0  1.2 -0.9333333333333333 0  1.333333333333333 -0.9333333333333333 0  1.466666666666667 -0.9333333333333333 0  1.6 -0.9333333333333333 0  1.733333333333333 -0.9333333333333333 0  1.866666666666667 -0.9333333333333333 0  2 -0.9333333333333333 0  -2 -0.8 0  -1.866666666666667 -0.8 0  -1.733333333333333 -0.8 0  -1.6 -0.8 0  -1.466666666666667 -0.8 0  -1.333333333333333 -0.8 0  -1.2 -0.8 0  -1.066666666666667 -0.8 0  -0.9333333333333333 -0.8 0  -0.8 -0.8 0  -0.6666666666666667 -0.8 0  -0.5333333333333334 -0.8 0  -0.3999999999999999 -0.8 0  -0.2666666666666666 -0.8 0  -0.1333333333333333 -0.8 0  0 -0.8 0  0.1333333333333333 -0.8 0  0.2666666666666666 -0.8 0  0.3999999999999999 -0.8 0  0.5333333333333332 -0.8 0  0.6666666666666665 -0.8 0  0.7999999999999998 -0.8 0  0.9333333333333331 -0.8 0  1.066666666666667 -0.8 0  1.2 -0.8 0  1.333333333333333 -0.8 0  1.466666666666667 -0.8 0  1.6 -0.8 0  1.733333333333333 -0.8 0  1.866666666666667 -0.8 0  2 -0.8 0  -2 -0.6666666666666667 0  -1.866666666666667 -0.
[...]
<PointData  Scalars="f_12"> 
<DataArray  type="Float64"  Name="f_12"  format="ascii">0.0000000000000000e+00  0.0000000000000000e+00  0.0000000000000000e+00  0.0000000000000000e+00  0.0000000000000000e+00  0.0000000000000000e+00  0.0000000000000000e+00  0.0000000000000000e+00  0.0000000000000000e+00  0.0000000000000000e+00  0.0000000000000000e+00  0.0000000000000000e+00  0.0000000000000000e+00  0.0000000000000000e+00  0.0000000000000000e+00  0.0000000000000000e+00  0.0000000000000000e+00  0.0000000000000000e+00  0.0000000000000000e+00  0.0000000000000000e+00  0.0000000000000000e+00  0.0000000000000000e+00  0.0000000000000000e+00  0.0000000000000000e+00  0.0000000000000000e+00  0.0000000000000000e+00  0.0000000000000000e+00  0.0000000000000000e+00  0.0000000000000000e+00  0.0000000000000000e+00  0.0000000000000000e+00  0.0000000000000000e+00  2.2150751961832920e-04  4.4020756314187593e-04  6.5387939956602730e-04  8.6027017238066996e-04  1.0571685862218211e-03  1.2424464826932696e-03  1.4140893793788123e-03  1.5702223301021735e-03  1.7091330970912908e-03  1.8292931878473259e-03  1.9293767825979290e-03  2.0082773705047525e-03  2.0651218362322723e-03  2.0992817275526350e-03  2.1103814633965509e-03  2.0983032973840780e-03  2.0631889258976980e-03  2.0054377150021522e-03  1.9257016102534347e-03  1.8248768815240473e-03  1.7040929363922558e-03  1.5646985075117024e-03  1.4082455826569880e-03  1.2364715092752128e-03  1.0512797934014257e-03  8.5472029331736953e-04  6.4896997281088848e-04  4.3631671831993068e-04  2.1915293331852917e-04  0.0000000000000000e+00  0.0000000000000000e+00  4.4020756314187604e-04  8.7508048735772869e-04  1.3000436731774566e-03  1.7105658261875863e-03  2.1022302370540618e-03  2.4707960748124144e-03  2.8122524759210789e-03  3.1228676813296985e-03  3.3992342419217592e-03  3.6383104866002593e-03  3.8374579988000820e-03  3.9944746263498232e-03  4.1076224644979106e-03  4.1756502556147285e-03  4.1978097165607823e-03  4.1738654197503887e-03  4.1040980030850561e-03  3.9893006542050498e-03  3.8307689930196205e-03  3.6302846509947773e-03  3.3900930057669944e-03  3.1128756682475434e-03  2.8017184350120463e-03  2.4600755191344554e-03  2.0917309812541183e-03  1.7007584518820952e-03  1.2914805690077073e-03  8.6843021879240607e-04  4.3631671831993100e-04  0.0000000000000000e+00  0.0000000000000000e+00  6.5387939956602719e-04  1.3000436731774568e-03  1.9315911249688535e-03  2.5417378054820765e-03  3.1238951876930280e-03  3.6717476500177045e-03  4.1793267099124714e-03  4.6410812763854996e-03  5.0519435445288167e-03  5.4073900014426270e-03  5.7034968115739996e-03  5.9369887178298691e-03  6.1052805525027686e-03  6.2065104946125950e-03  6.2395643274015724e-03  6.2040901285282538e-03  6.1005030507838200e-03  5.9299801056682203e-03  5.6944451275265070e-03  5.3965443539808469e-03  5.0396132928270162e-03  4.6276357438675532e-03  4.1651959994120575e-03  3.6574253597937141e-03  3.1099441787743594e-03  2.5288007117076289e-03  1.9204080767377251e-03  1.2914805690077079e-03  6.4896997281088903e-04  0.0000000000000000e+00  0.0000000000000000e+00  8.6027017238066964e-04  1.7105658261875856e-03  2.5417378054820761e-03  3.3448165252054716e-03  4.1111058178935067e-03  4.8322781554845061e-03  5.5004681851784512e-03  6.1083628392607546e-03  6.6492867681664323e-03  7.1172819232373456e-03  7.5071800612489803e-03  7.8146668921996940e-03  8.0363366017706505e-03  8.1697355699263657e-03  8.2133942787901565e-03  8.1668466472018669e-03  8.0306363302799621e-03  7.8063098591455611e-03  7.4963968453123711e-03  7.1043778121841362e-03  6.6346405204276721e-03  6.0924259062844011e-03  5.4837649390596238e-03  4.8154078187724256e-03  4.0947469737123562e-03  3.3297352731340097e-03  2.5288007117076302e-03  1.7007584518820968e-03  8.5472029331736996e-04  0.0000000000000000e+00  0.0000000000000000e+00  1.0571685862218209e-03  2.1022302370540605e-03  3.1238951876930254e-03  4.1111058178935076e-03  5.0531501947908234e-03  5.9397762804302440e-03  6.7613045385483093e-03  7.5087370555272934e-03  8.1738615024413014e-03  8.7493483096676584e-03  9.2288393999453364e-03  9.6070268119259582e-03  9.8797195940164353e-03  1.0043897481613660e-02  1.0097750095249405e-02  1.0040700705026490e-02  9.8734139806692343e-03  9.5977875623529472e-03  9.2169277170196032e-03  8.7351097587268656e-03  8.1577242818532524e-03  7.4912105587699269e-03  6.7429786705726739e-03  5.9213220583072268e-03  5.0353221946929485e-03  4.0947469737123605e-03  3.1099441787743620e-03  2.0917309812541192e-03  1.0512797934014264e-03  0.0000000000000000e+00  0.0000000000000000e+00  1.2424464826932692e-03  2.4707960748124136e-03  3.6717476500177054e-03  4.8322781554845061e-03  5.9397762804302397e-03  6.9821757548648878e-03  7.9480865469052833e-03  8.8269221299338355e-03  9.6090209434293132e-03  1.0285760107760557e-02  1.0849659394456271e-02  1.1294473440641275e-02  1.1615270263704994e-02  1.1808494299432759e-02  1.1872012458267363e-02  1.1805142061208666e-02  1.1608659959316193e-02  1.1284792630974625e-02  1.0837187556147232e-02  1.0270866652212491e-02  9.5921629886117667e-03  8.8086423487657179e-03  7.9290114553723177e-03  6.9630148046059825e-03  5.9213220583072303e-03  4.8154078187724308e-03  3.6574253597937141e-03  2.4600755191344554e-03  1.2364715092752139e-03  0.0000000000000000e+00  0.0000000000000000e+00  1.4140893793788123e-03  2.8122524759210798e-03  4.1793267099124749e-03  5.5004681851784512e-03  6.7613045385483119e-03  7.9480865469052867e-03  9.0478369927317268e-03  1.0048494995168404e-02  1.0939053801983158e-02  1.1709689873792317e-02  1.2351880982819877e-02  1.2858511018977083e-02  1.3223959270054472e-02  1.3444172134770942e-02  1.3516715538957490e-02  1.3440806744908287e-02  1.3217324749073431e-02  1.2848799022060087e-02  1.2339376919988867e-02  1.1694770648263582e-02  1.0922185150077458e-02  1.0030228689844559e-02  9.0288081812611286e-03  7.9290114553723281e-03  6.7429786705726791e-03  5.4837649390596281e-03  4.1651959994120549e-03  2.8017184350120471e-03  1.4082455826569891e-03  0.0000000000000000e+00  0.0000000000000000e+00  1.5702223301021750e-03  3.1228676813297024e-03  4.6410812763855109e-03  6.1083628392607616e-03  7.5087370555272995e-03  8.8269221299338459e-03  1.0048494995168416e-02  1.1160051358057924e-02  1.2149358465885104e-02  1.3005498238090789e-02  1.3718998253209965e-02  1.4281948030031235e-02  1.4688098115875412e-02  1.4932939704860464e-02  1.5013762854093039e-02  1.4929691831869530e-02  1.4681696693187930e-02  1.4272580798674819e-02  1.3706944631841814e-02  1.2991126882685076e-02  1.2133124311244452e-02  1.1142492346805099e-02  1.0030228689844559e-02  8.8086423487657179e-03  7.4912105587699304e-03  6.0924259062844046e-03  4.6276357438675541e-03  3.1128756682475460e-03  1.5646985075117050e-03  0.0000000000000000e+00  0.0000000000000000e+00  1.7091330970912932e-03  3.3992342419217635e-03  5.0519435445288280e-03  6.6492867681664470e-03  8.1738615024413153e-03  9.6090209434293306e-03  1.0939053801983177e-02  1.2149358465885116e-02  1.3226609187044052e-02  1.4158911778097593e-02  1.4935946110946702e-02  1.5549092639268800e-02  1.5991540238421115e-02  1.6258372879612012e-02  1.6346633028113410e-02  1.6255360161307030e-02  1.5985603412627954e-02  1.5540408023068894e-02  1.4924775977459167e-02  1.4145601870627413e-02  1.3211585643404461e-02  1.2133124311244463e-02  1.0922185150077469e-02  9.5921629886117753e-03  8.1577242818532680e-03  6.6346405204276817e-03  5.0396132928270266e-03  3.3900930057670030e-03  1.7040929363922608e-03  0.0000000000000000e+00  0.0000000000000000e+00  1.8292931878473285e-03  3.6383104866002632e-03  5.4073900014426383e-03  7.1172819232373629e-03  8.7493483096676879e-03  1.0285760107760576e-02  1.1709689873792329e-02  1.3005498238090803e-02  1.4158911778097590e-02  1.5157189643389577e-02  1.5989276057781911e-02  1.6645935737383166e-02  1.7119869332044863e-02  1.7405806231557224e-02  1.7500572473663337e-02  1.7403132030487191e-02  1.7114600402018138e-02  1.6638230167991246e-02  1.5979368894174416e-02  1.5145390504748385e-02  1.4145601870627428e-02  1.2991126882685101e-02  1.1694770648263596e-02  1.0270866652212503e-02  8.7351097587268813e-03  7.1043778121841535e-03  5.3965443539808616e-03  3.6302846509947873e-03  1.8248768815240539e-03  0.0000000000000000e+00  0.0000000000000000e+00  1.9293767825979311e-03  3.8374579988000868e-03  5.7034968115740083e-03  7.5071800612489942e-03  9.2288393999453589e-03  1.0849659394456290e-02  1.2351880982819882e-02  1.3718998253209972e-02  1.4935946110946709e-02  1.5989276057781908e-02  1.6867317070013189e-02  1.7560318463903865e-02  1.8060571703172702e-02  1.8362508345342046e-02  1.8462771737697718e-02  1.8360260640346553e-02  1.8056143640207828e-02  1.7553843981464725e-02  1.6858995223630508e-02  1.5979368894174447e-02  1.4924775977459200e-02  1.3706944631841867e-02  1.2339376919988895e-02  1.0837187556147258e-02  9.2169277170196275e-03  7.4963968453123937e-03  5.6944451275265252e-03  3.8307689930196344e-03  1.9257016102534425e-03  0.0000000000000000e+00  0.0000000000000000e+00  2.0082773705047538e-03  3.9944746263498232e-03  5.9369887178298752e-03  7.8146668921997061e-03  9.6070268119259773e-03  1.1294473440641283e-02  1.2858511018977085e-02  1.4281948030031244e-02  1.5549092639268810e-02  1.6645935737383162e-02  1.7560318463903851e-02  1.8282080982783225e-02  1.8803189345739355e-02  1.9117837527154319e-02  1.9222522142097336e-02  1.9116087946670204e-02  1.8799742932859714e-02  1.8277042622318582e-02  1.7553843981464728e-02  1.6638230167991267e-02  1.5540408023068929e-02  1.4272580798674866e-02  1.2848799022060124e-02  1.1284792630974656e-02  9.5977875623529819e-03  7.8063098591455889e-03  5.9299801056682411e-03  3.9893006542050637e-03  2.0054377150021596e-03  0.0000000000000000e+00  0.0000000000000000e+00  2.0651218362322719e-03  4.1076224644979124e-03  6.1052805525027695e-03  8.0363366017706557e-03  9.8797195940164406e-03  1.1615270263705003e-02  1.3223959270054474e-02  1.4688098115875424e-02  1.5991540238421111e-02  1.7119869332044860e-02  1.8060571703172695e-02  1.8803189345739324e-02  1.9339450488323709e-02  1.9663374616055471e-02  1.9771349407464472e-02  1.9662177628561418e-02  1.9337092758203885e-02  1.8799742932859732e-02  1.8056143640207859e-02  1.7114600402018166e-02  1.5985603412627985e-02  1.4681696693187979e-02  1.3217324749073471e-02  1.1608659959316224e-02  9.8734139806692673e-03  8.0306363302799933e-03  6.1005030507838408e-03  4.1040980030850691e-03  2.0631889258977062e-03  0.0000000000000000e+00  0.0000000000000000e+00  2.0992817275526368e-03  4.1756502556147329e-03  6.2065104946126019e-03  8.1697355699263691e-03  1.0043897481613662e-02  1.1808494299432763e-02  1.3444172134770945e-02  1.4932939704860471e-02  1.6258372879612022e-02  1.7405806231557228e-02  1.8362508345342060e-02  1.9117837527154312e-02  1.9663374616055464e-02  1.9993029852471266e-02  2.0103121200930080e-02  1.9992422134207682e-02  1.9662177628561432e-02  1.9116087946670218e-02  1.8360260640346585e-02  1.7403132030487222e-02  1.6255360161307061e-02  1.4929691831869577e-02  1.3440806744908333e-02  1.1805142061208706e-02  1.0040700705026519e-02  8.1668466472018947e-03  6.2040901285282720e-03  4.1738654197504017e-03  2.0983032973840858e-03  0.0000000000000000e+00  0.0000000000000000e+00  2.1103814633965530e-03  4.1978097165607893e-03  6.2395643274015776e-03  8.2133942787901600e-03  1.0097750095249410e-02  1.1872012458267373e-02  1.3516715538957495e-02  1.5013762854093051e-02  1.6346633028113417e-02  1.7500572473663347e-02  1.8462771737697746e-02  1.9222522142097336e-02  1.9771349407464469e-02  2.0103121200930073e-02  2.0214125990635618e-02  2.0103121200930080e-02  1.9771349407464476e-02  1.9222522142097326e-02  1.8462771737697739e-02  1.7500572473663357e-02  1.6346633028113441e-02  1.5013762854093091e-02  1.3516715538957527e-02  1.1872012458267403e-02  1.0097750095249427e-02  8.2133942787901825e-03  6.2395643274015932e-03  4.1978097165607953e-03  2.1103814633965574e-03  0.0000000000000000e+00  0.0000000000000000e+00  2.0983032973840824e-03  4.1738654197503956e-03  6.2040901285282616e-03  8.1668466472018791e-03  1.0040700705026507e-02  1.1805142061208685e-02  1.3440806744908300e-02  1.4929691831869546e-02  1.6255360161307044e-02  1.7403132030487219e-02  1.8360260640346598e-02  1.9116087946670239e-02  1.9662177628561445e-02  1.9992422134207703e-02  2.0103121200930076e-02  1.9993029852471280e-02  1.9663374616055475e-02  1.9117837527154305e-02  1.8362508345342057e-02  1.7405806231557248e-02  1.6258372879612046e-02  1.4932939704860508e-02  1.3444172134770976e-02  1.1808494299432787e-02  1.0043897481613681e-02  8.1697355699263882e-03  6.2065104946126184e-03  4.1756502556147424e-03  2.0992817275526424e-03  0.0000000000000000e+00  0.0000000000000000e+00  2.0631889258977032e-03  4.1040980030850622e-03  6.1005030507838313e-03  8.0306363302799812e-03  9.8734139806692552e-03  1.1608659959316215e-02  1.3217324749073448e-02  1.4681696693187935e-02  1.5985603412627964e-02  1.7114600402018159e-02  1.8056143640207876e-02  1.8799742932859746e-02  1.9337092758203913e-02  1.9662177628561456e-02  1.9771349407464483e-02  1.9663374616055471e-02  1.9339450488323712e-02  1.8803189345739341e-02  1.8060571703172709e-02  1.7119869332044884e-02  1.5991540238421146e-02  1.4688098115875457e-02  1.3223959270054498e-02  1.1615270263705022e-02  9.8797195940164596e-03  8.0363366017706696e-03  6.1052805525027834e-03  4.1076224644979245e-03  2.0651218362322801e-03  0.0000000000000000e+00  0.0000000000000000e+00  2.0054377150021578e-03  3.9893006542050594e-03  5.9299801056682333e-03  7.8063098591455776e-03  9.5977875623529663e-03  1.1284792630974649e-02  1.2848799022060108e-02  1.4272580798674843e-02  1.5540408023068933e-02  1.6638230167991278e-02  1.7553843981464760e-02  1.8277042622318614e-02  1.8799742932859756e-02  1.9116087946670232e-02  1.9222522142097333e-02  1.9117837527154308e-02  1.8803189345739345e-02  1.8282080982783239e-02  1.7560318463903869e-02  1.6645935737383186e-02  1.5549092639268822e-02  1.4281948030031268e-02  1.2858511018977102e-02  1.1294473440641295e-02  9.6070268119259877e-03  7.8146668921997182e-03  5.9369887178298917e-03  3.9944746263498362e-03  2.0082773705047598e-03  0.0000000000000000e+00  0.0000000000000000e+00  1.9257016102534412e-03  3.8307689930196327e-03  5.6944451275265217e-03  7.4963968453123815e-03  9.2169277170196153e-03  1.0837187556147251e-02  1.2339376919988886e-02  1.3706944631841847e-02  1.4924775977459196e-02  1.5979368894174454e-02  1.6858995223630532e-02  1.7553843981464760e-02  1.8056143640207876e-02  1.8360260640346591e-02  1.8462771737697749e-02  1.8362508345342060e-02  1.8060571703172705e-02  1.7560318463903862e-02  1.6867317070013196e-02  1.5989276057781939e-02  1.4935946110946733e-02  1.3718998253209994e-02  1.2351880982819899e-02  1.0849659394456302e-02  9.2288393999453659e-03  7.5071800612490072e-03  5.7034968115740195e-03  3.8374579988000928e-03  1.9293767825979368e-03  0.0000000000000000e+00  0.0000000000000000e+00  1.8248768815240547e-03  3.6302846509947894e-03  5.3965443539808599e-03  7.1043778121841518e-03  8.7351097587268813e-03  1.0270866652212508e-02  1.1694770648263599e-02  1.2991126882685099e-02  1.4145601870627444e-02  1.5145390504748411e-02  1.5979368894174461e-02  1.6638230167991288e-02  1.7114600402018166e-02  1.7403132030487219e-02  1.7500572473663364e-02  1.7405806231557245e-02  1.7119869332044884e-02  1.6645935737383186e-02  1.5989276057781943e-02  1.5157189643389621e-02  1.4158911778097626e-02  1.3005498238090824e-02  1.1709689873792352e-02  1.0285760107760594e-02  8.7493483096677052e-03  7.1172819232373794e-03  5.4073900014426496e-03  3.6383104866002745e-03  1.8292931878473356e-03  0.0000000000000000e+00  0.0000000000000000e+00  1.7040929363922636e-03  3.3900930057670087e-03  5.0396132928270361e-03  6.6346405204276938e-03  8.1577242818532784e-03  9.5921629886117875e-03  1.0922185150077483e-02  1.2133124311244472e-02  1.3211585643404486e-02  1.4145601870627448e-02  1.4924775977459210e-02  1.5540408023068943e-02  1.5985603412627985e-02  1.6255360161307058e-02  1.6346633028113448e-02  1.6258372879612033e-02  1.5991540238421129e-02  1.5549092639268845e-02  1.4935946110946764e-02  1.4158911778097657e-02  1.3226609187044113e-02  1.2149358465885166e-02  1.0939053801983208e-02  9.6090209434293514e-03  8.1738615024413448e-03  6.6492867681664687e-03  5.0519435445288436e-03  3.3992342419217766e-03  1.7091330970913010e-03  0.0000000000000000e+00  0.0000000000000000e+00  1.5646985075117100e-03  3.1128756682475577e-03  4.6276357438675740e-03  6.0924259062844219e-03  7.4912105587699503e-03  8.8086423487657387e-03  1.0030228689844579e-02  1.1142492346805111e-02  1.2133124311244482e-02  1.2991126882685113e-02  1.3706944631841874e-02  1.4272580798674869e-02  1.4681696693187979e-02  1.4929691831869577e-02  1.5013762854093091e-02  1.4932939704860504e-02  1.4688098115875452e-02  1.4281948030031287e-02  1.3718998253210025e-02  1.3005498238090867e-02  1.2149358465885189e-02  1.1160051358057994e-02  1.0048494995168470e-02  8.8269221299338840e-03  7.5087370555273385e-03  6.1083628392607911e-03  4.6410812763855317e-03  3.1228676813297176e-03  1.5702223301021828e-03  0.0000000000000000e+00  0.0000000000000000e+00  1.4082455826569941e-03  2.8017184350120580e-03  4.1651959994120722e-03  5.4837649390596420e-03  6.7429786705726991e-03  7.9290114553723420e-03  9.0288081812611512e-03  1.0030228689844572e-02  1.0922185150077484e-02  1.1694770648263606e-02  1.2339376919988898e-02  1.2848799022060122e-02  1.3217324749073465e-02  1.3440806744908320e-02  1.3516715538957523e-02  1.3444172134770980e-02  1.3223959270054502e-02  1.2858511018977127e-02  1.2351880982819927e-02  1.1709689873792379e-02  1.0939053801983229e-02  1.0048494995168480e-02  9.0478369927317805e-03  7.9480865469053284e-03  6.7613045385483449e-03  5.5004681851784773e-03  4.1793267099124922e-03  2.8122524759210928e-03  1.4140893793788190e-03  0.0000000000000000e+00  0.0000000000000000e+00  1.2364715092752173e-03  2.4600755191344632e-03  3.6574253597937288e-03  4.8154078187724438e-03  5.9213220583072467e-03  6.9630148046060008e-03  7.9290114553723402e-03  8.8086423487657283e-03  9.5921629886117753e-03  1.0270866652212508e-02  1.0837187556147262e-02  1.1284792630974656e-02  1.1608659959316222e-02  1.1805142061208694e-02  1.1872012458267392e-02  1.1808494299432789e-02  1.1615270263705024e-02  1.1294473440641314e-02  1.0849659394456330e-02  1.0285760107760623e-02  9.6090209434293913e-03  8.8269221299339048e-03  7.9480865469053336e-03  6.9821757548649234e-03  5.9397762804302631e-03  4.8322781554845226e-03  3.6717476500177158e-03  2.4707960748124222e-03  1.2424464826932742e-03  0.0000000000000000e+00  0.0000000000000000e+00  1.0512797934014294e-03  2.0917309812541261e-03  3.1099441787743719e-03  4.0947469737123710e-03  5.0353221946929615e-03  5.9213220583072450e-03  6.7429786705726878e-03  7.4912105587699356e-03  8.1577242818532663e-03  8.7351097587268813e-03  9.2169277170196205e-03  9.5977875623529784e-03  9.8734139806692673e-03  1.0040700705026516e-02  1.0097750095249424e-02  1.0043897481613691e-02  9.8797195940164631e-03  9.6070268119260033e-03  9.2288393999453867e-03  8.7493483096677312e-03  8.1738615024413708e-03  7.5087370555273559e-03  6.7613045385483562e-03  5.9397762804302753e-03  5.0531501947908442e-03  4.1111058178935232e-03  3.1238951876930389e-03  2.1022302370540683e-03  1.0571685862218246e-03  0.0000000000000000e+00  0.0000000000000000e+00  8.5472029331737235e-04  1.7007584518821017e-03  2.5288007117076380e-03  3.3297352731340201e-03  4.0947469737123701e-03  4.8154078187724421e-03  5.4837649390596342e-03  6.0924259062844080e-03  6.6346405204276825e-03  7.1043778121841501e-03  7.4963968453123928e-03  7.8063098591455880e-03  8.0306363302799933e-03  8.1668466472018895e-03  8.2133942787901721e-03  8.1697355699263900e-03  8.0363366017706817e-03  7.8146668921997304e-03  7.5071800612490193e-03  7.1172819232373950e-03  6.6492867681664835e-03  6.1083628392608041e-03  5.5004681851784877e