<?xml version="1.0"?>
<VTKFile type="UnstructuredGrid"  version="0.1"  >
<UnstructuredGrid>
<Piece  NumberOfPoints="961" NumberOfCells="1800">
<Points>
<DataArray  type="Float64"  NumberOfComponents="3"  format="ascii">-2 -2 0  -1.866666666666667 -2 0  -1.733333333333333 -2 0  -1.6 -2 0  -1.466666666666667 -2 0  -1.333333333333333 -2 0  -1.2 -2 0  -1.066666666666667 -2 0  -0.9333333333333333 -2 0  -0.8 -2 0  -0.6666666666666667 -2 0  -0.5333333333333334 -2 0  -0.3999999999999999 -2 0  -0.2666666666666666 -2 0  -0.1333333333333333 -2 0  0 -2 0  0.1333333333333333 -2 0  0.2666666666666666 -2 0  0.3999999999999999 -2 0  0.5333333333333332 -2 0  0.6666666666666665 -2 0  0.7999999999999998 -2 0  0.9333333333333331 -2 0  1.066666666666667 -2 0  1.2 -2 0  1.333333333333333 -2 0  1.466666666666667 -2 0  1.6 -2 0  1.733333333333333 -2 0  1.866666666666667 -2 0  2 -2 0  -2 -1.866666666666667 0  -1.866666666666667 -1.866666666666667 0  -1.733333333333333 -1.866666666666667 0  -1.6 -1.866666666666667 0  -1.466666666666667 -1.866666666666667 0  -1.333333333333333 -1.866666666666667 0  -1.2 -1.866666666666667 0  -1.066666666666667 -1.866666666666667 0  -0.9333333333333333 -1.866666666666667 0  -0.8 -1.866666666666667 0  -0.6666666666666667 -1.866666666666667 0  -0.5333333333333334 -1.866666666666667 0  -0.3999999999999999 -1.866666666666667 0  -0.2666666666666666 -1.866666666666667 0  -0.1333333333333333 -1.866666666666667 0  0 -1.866666666666667 0  0.1333333333333333 -1.866666666666667 0  0.2666666666666666 -1.866666666666667 0  0.3999999999999999 -1.866666666666667 0  0.5333333333333332 -1.866666666666667 0  0.6666666666666665 -1.866666666666667 0  0.7999999999999998 -1.866666666666667 0  0.9333333333333331 -1.866666666666667 0  1.066666666666667 -1.866666666666667 0  1.2 -1.866666666666667 0  1.333333333333333 -1.866666666666667 0  1.466666666666667 -1.866666666666667 0  1.6 -1.866666666666667 0  1.733333333333333 -1.866666666666667 0  1.866666666666667 -1.866666666666667 0  2 -1.866666666666667 0  -2 -1.733333333333333 0  -1.866666666666667 -1.733333333333333 0  -1.733333333333333 -1.733333333333333 0  -1.6 -1.733333333333333 0  -1.466666666666667 -1.733333333333333 0  -1.333333333333333 -1.733333333333333 0  -1.2 -1.733333333333333 0  -1.066666666666667 -1.733333333333333 0  -0.9333333333333333 -1.733333333333333 0  -0.8 -1.733333333333333 0  -0.6666666666666667 -1.733333333333333 0  -0.5333333333333334 -1.733333333333333 0  -0.3999999999999999 -1.733333333333333 0  -0.2666666666666666 -1.733333333333333 0  -0.1333333333333333 -1.733333333333333 0  0 -1.733333333333333 0  0.1333333333333333 -1.733333333333333 0  0.2666666666666666 -1.733333333333333 0  0.3999999999999999 -1.733333333333333 0  0.5333333333333332 -1.733333333333333 0  0.6666666666666665 -1.733333333333333 0  0.7999999999999998 -1.733333333333333 0  0.9333333333333331 -1.733333333333333 0  1.066666666666667 -1.733333333333333 0  1.2 -1.733333333333333 0  1.333333333333333 -1.733333333333333 0  1.466666666666667 -1.733333333333333 0  1.6 -1.733333333333333 0  1.733333333333333 -1.733333333333333 0  1.866666666666667 -1.733333333333333 0  2 -1.733333333333333 0  -2 -1.6 0  -1.866666666666667 -1.6 0  -1.733333333333333 -1.6 0  -1.6 -1.6 0  -1.466666666666667 -1.6 0  -1.333333333333333 -1.6 0  -1.2 -1.6 0  -1.066666666666667 -1.6 0  -0.9333333333333333 -1.6 0  -0.8 -1.6 0  -0.6666666666666667 -1.6 0  -0.5333333333333334 -1.6 0  -0.3999999999999999 -1.6 0  -0.2666666666666666 -1.6 0  -0.1333333333333333 -1.6 0  0 -1.6 0  0.1333333333333333 -1.6 0  0.2666666666666666 -1.6 0  0.3999999999999999 -1.6 0  0.5333333333333332 -1.6 0  0.6666666666666665 -1.6 0  0.7999999999999998 -1.6 0  0.9333333333333331 -1.6 0  1.066666666666667 -1.6 0  1.2 -1.6 0  1.333333333333333 -1.6 0  1.466666666666667 -1.6 0  1.6 -1.6 0  1.733333333333333 -1.6 0  1.866666666666667 -1.6 0  2 -1.6 0  -2 -1.466666666666667 0  -1.866666666666667 -1.466666666666667 0  -1.733333333333333 -1.466666666666667 0  -1.6 -1.466666666666667 0  -1.466666666666667 -1.466666666666667 0  -1.333333333333333 -1.466666666666667 0  -1.2 -1.466666666666667 0  -1.066666666666667 -1.466666666666667 0  -0.9333333333333333 -1.466666666666667 0  -0.8 -1.466666666666667 0  -0.6666666666666667 -1.466666666666667 0  -0.5333333333333334 -1.466666666666667 0  -0.3999999999999999 -1.466666666666667 0  -0.2666666666666666 -1.466666666666667 0  -0.1333333333333333 -1.466666666666667 0  0 -1.466666666666667 0  0.1333333333333333 -1.466666666666667 0  0.2666666666666666 -1.466666666666667 0  0.3999999999999999 -1.466666666666667 0  0.5333333333333332 -1.466666666666667 0  0.6666666666666665 -1.466666666666667 0  0.7999999999999998 -1.466666666666667 0  0.9333333333333331 -1.466666666666667 0  1.066666666666667 -1.466666666666667 0  1.2 -1.466666666666667 0  1.333333333333333 -1.466666666666667 0  1.466666666666667 -1.466666666666667 0  1.6 -1.466666666666667 0  1.733333333333333 -1.466666666666667 0  1.866666666666667 -1.466666666666667 0  2 -1.466666666666667 0  -2 -1.333333333333333 0  -1.866666666666667 -1.333333333333333 0  -1.733333333333333 -1.333333333333333 0  -1.6 -1.333333333333333 0  -1.466666666666667 -1.333333333333333 0  -1.333333333333333 -1.333333333333333 0  -1.2 -1.333333333333333 0  -1.066666666666667 -1.333333333333333 0  -0.9333333333333333 -1.333333333333333 0  -0.8 -1.333333333333333 0  -0.6666666666666667 -1.333333333333333 0  -0.5333333333333334 -1.333333333333333 0  -0.3999999999999999 -1.333333333333333 0  -0.2666666666666666 -1.333333333333333 0  -0.1333333333333333 -1.333333333333333 0  0 -1.333333333333333 0  0.1333333333333333 -1.333333333333333 0  0.2666666666666666 -1.333333333333333 0  0.3999999999999999 -1.333333333333333 0  0.5333333333333332 -1.333333333333333 0  0.6666666666666665 -1.333333333333333 0  0.7999999999999998 -1.333333333333333 0  0.9333333333333331 -1.333333333333333 0  1.066666666666667 -1.333333333333333 0  1.2 -1.333333333333333 0  1.333333333333333 -1.333333333333333 0  1.466666666666667 -1.333333333333333 0  1.6 -1.333333333333333 0  1.733333333333333 -1.333333333333333 0  1.866666666666667 -1.333333333333333 0  2 -1.333333333333333 0  -2 -1.2 0  -1.866666666666667 -1.2 0  -1.733333333333333 -1.2 0  -1.6 -1.2 0  -1.466666666666667 -1.2 0  -1.333333333333333 -1.2 0  -1.2 -1.2 0  -1.066666666666667 -1.2 0  -0.9333333333333333 -1.2 0  -0.8 -1.2 0  -0.6666666666666667 -1.2 0  -0.5333333333333334 -1.2 0  -0.3999999999999999 -1.2 0  -0.2666666666666666 -1.2 0  -0.1333333333333333 -1.2 0  0 -1.2 0  0.1333333333333333 -1.2 0  0.2666666666666666 -1.2 0  0.3999999999999999 -1.2 0  0.5333333333333332 -1.2 0  0.6666666666666665 -1.2 0  0.7999999999999998 -1.2 0  0.9333333333333331 -1.2 0  1.066666666666667 -1.2 0  1.2 -1.2 0  1.333333333333333 -1.2 0  1.466666666666667 -1.2 0  1.6 -1.2 0  1.733333333333333 -1.2 0  1.866666666666667 -1.2 0  2 -1.2 0  -2 -1.066666666666667 0  -1.866666666666667 -1.066666666666667 0  -1.733333333333333 -1.066666666666667 0  -1.6 -1.066666666666667 0  -1.466666666666667 -1.066666666666667 0  -1.333333333333333 -1.066666666666667 0  -1.2 -1.066666666666667 0  -1.066666666666667 -1.066666666666667 0  -0.9333333333333333 -1.066666666666667 0  -0.8 -1.066666666666667 0  -0.6666666666666667 -1.066666666666667 0  -0.5333333333333334 -1.066666666666667 0  -0.3999999999999999 -1.066666666666667 0  -0.2666666666666666 -1.066666666666667 0  -0.1333333333333333 -1.066666666666667 0  0 -1.066666666666667 0  0.1333333333333333 -1.066666666666667 0  0.2666666666666666 -1.066666666666667 0  0.3999999999999999 -1.066666666666667 0  0.5333333333333332 -1.066666666666667 0  0.6666666666666665 -1.066666666666667 0  0.7999999999999998 -1.066666666666667 0  0.9333333333333331 -1.066666666666667 0  1.066666666666667 -1.066666666666667 0  1.2 -1.066666666666667 0  1.333333333333333 -1.066666666666667 0  1.466666666666667 -1.066666666666667 0  1.6 -1.066666666666667 0  1.733333333333333 -1.066666666666667 0  1.866666666666667 -1.066666666666667 0  2 -1.066666666666667 0  -2 -0.9333333333333333 0  -1.866666666666667 -0.9333333333333333 0  -1.733333333333333 -0.9333333333333333 0  -1.6 -0.9333333333333333 0  -1.466666666666667 -0.9333333333333333 0  -1.333333333333333 -0.9333333333333333 0  -1.2 -0.9333333333333333 0  -1.066666666666667 -0.9333333333333333 0  -0.9333333333333333 -0.9333333333333333 0  -0.8 -0.9333333333333333 0  -0.6666666666666667 -0.9333333333333333 0  -0.5333333333333334 -0.9333333333333333 0  -0.3999999999999999 -0.9333333333333333 0  -0.2666666666666666 -0.9333333333333333 0  -0.1333333333333333 -0.9333333333333333 0  0 -0.9333333333333333 0  0.1333333333333333 -0.9333333333333333 0  0.2666666666666666 -0.9333333333333333 0  0.3999999999999999 -0.9333333333333333 0  0.5333333333333332 -0.9333333333333333 0  0.6666666666666665 -0.9333333333333333 0  0.7999999999999998 -0.9333333333333333 0  0.9333333333333331 -0.9333333333333333 0  1.066666666666667 -0.9333333333333333 0  1.2 -0.9333333333333333 0  1.333333333333333 -0.9333333333333333 0  1.466666666666667 -0.9333333333333333 0  1.6 -0.9333333333333333 0  1.733333333333333 -0.9333333333333333 0  1.866666666666667 -0.9333333333333333 0  2 -0.9333333333333333 0  -2 -0.8 0  -1.866666666666667 -0.8 0  -1.733333333333333 -0.8 0  -1.6 -0.8 0  -1.466666666666667 -0.8 0  -1.333333333333333 -0.8 0  -1.2 -0.8 0  -1.066666666666667 -0.8 0  -0.9333333333333333 -0.8 0  -0.8 -0.8 0  -0.6666666666666667 -0.8 0  -0.5333333333333334 -0.8 0  -0.3999999999999999 -0.8 0  -0.2666666666666666 -0.8 0  -0.1333333333333333 -0.8 0  0 -0.8 0  0.1333333333333333 -0.8 0  0.2666666666666666 -0.8 0  0.3999999999999999 -0.8 0  0.5333333333333332 -0.8 0  0.6666666666666665 -0.8 0  0.7999999999999998 -0.8 0  0.9333333333333331 -0.8 0  1.066666666666667 -0.8 0  1.2 -0.8 0  1.333333333333333 -0.8 0  1.466666666666667 -0.8 0  1.6 -0.8 0  1.733333333333333 -0.8 0  1.866666666666667 -0.8 0  2 -0.8 0  -2 -0.6666666666666667 0  -1.866666666666667 -0.
[...]
<PointData  Scalars="f_12"> 
<DataArray  type="Float64"  Name="f_12"  format="ascii">0.0000000000000000e+00  0.0000000000000000e+00  0.0000000000000000e+00  0.0000000000000000e+00  0.0000000000000000e+00  0.0000000000000000e+00  0.0000000000000000e+00  0.0000000000000000e+00  0.0000000000000000e+00  0.0000000000000000e+00  0.0000000000000000e+00  0.0000000000000000e+00  0.0000000000000000e+00  0.0000000000000000e+00  0.0000000000000000e+00  0.0000000000000000e+00  0.0000000000000000e+00  0.0000000000000000e+00  0.0000000000000000e+00  0.0000000000000000e+00  0.0000000000000000e+00  0.0000000000000000e+00  0.0000000000000000e+00  0.0000000000000000e+00  0.0000000000000000e+00  0.0000000000000000e+00  0.0000000000000000e+00  0.0000000000000000e+00  0.0000000000000000e+00  0.0000000000000000e+00  0.0000000000000000e+00  0.0000000000000000e+00  4.6875528716098673e-04  9.3248978627575706e-04  1.3871475054190049e-03  1.8284601671092655e-03  2.2520277996819766e-03  2.6533642836968603e-03  3.0279495194089584e-03  3.3713007084854737e-03  3.6790646134941167e-03  3.9471274730971924e-03  4.1717361255520294e-03  4.3496219751187259e-03  4.4781185385953945e-03  4.5552633900577798e-03  4.5798763254712334e-03  4.5516073795202555e-03  4.4709507618851700e-03  4.3392236002910423e-03  4.1585113088286191e-03  3.9315841593157786e-03  3.6617919570901486e-03  3.3529453931430836e-03  3.0091935147468010e-03  2.6349067707571233e-03  2.2345743038938003e-03  1.8127227980043450e-03  1.3738627568778380e-03  9.2246788157950357e-04  4.6299807869595893e-04  0.0000000000000000e+00  0.0000000000000000e+00  9.3248978627575815e-04  1.8554152966260141e-03  2.7604238570514612e-03  3.6389332688676226e-03  4.4821565789127356e-03  5.2811541913006755e-03  6.0269254349526701e-03  6.7105459440045976e-03  7.3233493670888522e-03  7.8571452220574118e-03  8.3044595498850370e-03  8.6587815327785929e-03  8.9147975599047566e-03  9.0685944152284984e-03  9.1178152641011919e-03  9.0617557159872845e-03  8.9013920832626738e-03  8.6393395677529655e-03  8.2797439430837057e-03  7.8281157985123570e-03  7.2911210422354844e-03  6.6763446929747850e-03  5.9920467176593087e-03  5.2469286713278515e-03  4.4499282309524600e-03  3.6100556732441840e-03  2.7362824531608977e-03  1.8374880560347643e-03  9.2246788157950412e-04  0.0000000000000000e+00  0.0000000000000000e+00  1.3871475054190051e-03  2.7604238570514616e-03  4.1072198104308887e-03  5.4146809563084750e-03  6.6696938941636736e-03  7.8589386447043205e-03  8.9690132558018550e-03  9.9866326870539888e-03  1.0898896410333477e-02  1.1693611133969913e-02  1.2359648198969665e-02  1.2887310337694224e-02  1.3268680111889648e-02  1.3497922675474502e-02  1.3571518496844456e-02  1.3488407031613759e-02  1.3250029538947505e-02  1.2860267584410846e-02  1.2325282461028642e-02  1.1653268949144610e-02  1.0854143738827347e-02  9.9391938015495514e-03  8.9207125633188507e-03  7.8116516855229285e-03  6.6253136539608289e-03  5.3751055179969611e-03  4.0743675124826958e-03  2.7362824531608995e-03  1.3738627568778390e-03  0.0000000000000000e+00  0.0000000000000000e+00  1.8284601671092651e-03  3.6389332688676213e-03  5.4146809563084750e-03  7.1386887351776529e-03  8.7936308849583204e-03  1.0361926250591541e-02  1.1825894109161966e-02  1.3168011366225829e-02  1.4371262408292521e-02  1.5419562886563348e-02  1.6298230038795464e-02  1.6994465952284845e-02  1.7497817133187290e-02  1.7800574213716894e-02  1.7898079575668489e-02  1.7788917725901597e-02  1.7474972749891991e-02  1.6961348177193566e-02  1.6256156053541047e-02  1.5370192821847064e-02  1.4316528729499300e-02  1.3110044033557585e-02  1.1766948655667315e-02  1.0304321845431270e-02  8.7397048822369650e-03  7.0907732361974252e-03  5.3751055179969628e-03  3.6100556732441853e-03  1.8127227980043461e-03  0.0000000000000000e+00  0.0000000000000000e+00  2.2520277996819771e-03  4.4821565789127356e-03  6.6696938941636719e-03  8.7936308849583238e-03  1.0832593967365097e-02  1.2764907002400700e-02  1.4568777827471468e-02  1.6222611109321588e-02  1.7705436615073952e-02  1.8997429552246283e-02  2.0080489021641699e-02  2.0938833050760889e-02  2.1559564967188104e-02  2.1933166453566869e-02  2.2053877481067911e-02  2.1919932000537715e-02  2.1533629952861986e-02  2.0901239718270726e-02  2.0032739249162931e-02  1.8941417458797870e-02  1.7643368686076747e-02  1.6156921149431642e-02  1.4502044477693939e-02  1.2699781283754097e-02  1.0771743362724257e-02  8.7397048822369702e-03  6.6253136539608324e-03  4.4499282309524643e-03  2.2345743038938021e-03  0.0000000000000000e+00  0.0000000000000000e+00  2.6533642836968603e-03  5.2811541913006755e-03  7.8589386447043257e-03  1.0361926250591538e-02  1.2764907002400702e-02  1.5042322236888383e-02  1.7168480911101118e-02  1.9117925237336512e-02  2.0865933047642480e-02  2.2389129394126267e-02  2.3666167330370691e-02  2.4678428872220791e-02  2.5410692752031092e-02  2.5851716247354394e-02  2.5994684064423249e-02  2.5837487467808864e-02  2.5382810600585854e-02  2.4638016912657330e-02  2.3614845267153739e-02  2.2328941018219275e-02  2.0799260633638687e-02  1.9047398001198073e-02  1.7096885503932263e-02  1.4972522824647524e-02  1.2699781283754107e-02  1.0304321845431281e-02  7.8116516855229346e-03  5.2469286713278549e-03  2.6349067707571255e-03  0.0000000000000000e+00  0.0000000000000000e+00  3.0279495194089601e-03  6.0269254349526770e-03  8.9690132558018637e-03  1.1825894109161968e-02  1.4568777827471468e-02  1.7168480911101132e-02  1.9595670949969005e-02  2.1821281587323393e-02  2.3817083943175145e-02  2.5556383276441389e-02  2.7014795232935897e-02  2.8171045755810111e-02  2.9007733685930525e-02  2.9511995800411875e-02  2.9676020506253051e-02  2.9497368031123381e-02  2.8979070631472637e-02  2.8129504563590695e-02  2.6962044577705860e-02  2.5494529662779920e-02  2.3748583959228426e-02  2.1748847713234928e-02  1.9522178832875860e-02  1.7096885503932284e-02  1.4502044477693959e-02  1.1766948655667327e-02  8.9207125633188472e-03  5.9920467176593070e-03  3.0091935147468015e-03  0.0000000000000000e+00  0.0000000000000000e+00  3.3713007084854776e-03  6.7105459440046089e-03  9.9866326870540079e-03  1.3168011366225847e-02  1.6222611109321602e-02  1.9117925237336533e-02  2.1821281587323400e-02  2.4300302671254902e-02  2.6523540313833405e-02  2.8461250210651625e-02  3.0086255687341072e-02  3.1374838431856643e-02  3.2307588287995397e-02  3.2870144945954451e-02  3.3053771521560492e-02  3.2855712923821327e-02  3.2279309345293591e-02  3.1333855497206263e-02  3.0034217394244500e-02  2.8400238527047008e-02  2.6455984213431285e-02  2.4228885167798090e-02  2.1748847713234928e-02  1.9047398001198080e-02  1.6156921149431649e-02  1.3110044033557585e-02  9.9391938015495358e-03  6.6763446929747833e-03  3.3529453931430827e-03  0.0000000000000000e+00  0.0000000000000000e+00  3.6790646134941224e-03  7.3233493670888687e-03  1.0898896410333501e-02  1.4371262408292552e-02  1.7705436615074007e-02  2.0865933047642525e-02  2.3817083943175169e-02  2.6523540313833412e-02  2.8950963129629720e-02  3.1066867628519033e-02  3.2841565538899574e-02  3.4249137366240523e-02  3.5268360622721220e-02  3.5883520630966267e-02  3.6085038287442930e-02  3.5869863215827705e-02  3.5241599741958216e-02  3.4210355255174581e-02  3.2792323650824413e-02  3.1009138442064633e-02  2.8887048676091917e-02  2.6455984213431306e-02  2.3748583959228436e-02  2.0799260633638701e-02  1.7643368686076764e-02  1.4316528729499312e-02  1.0854143738827354e-02  7.2911210422354940e-03  3.6617919570901538e-03  0.0000000000000000e+00  0.0000000000000000e+00  3.9471274730972002e-03  7.8571452220574274e-03  1.1693611133969944e-02  1.5419562886563395e-02  1.8997429552246359e-02  2.2389129394126319e-02  2.5556383276441420e-02  2.8461250210651656e-02  3.1066867628519033e-02  3.3338356358718631e-02  3.5243831213751117e-02  3.6755444468266729e-02  3.7850382707110559e-02  3.8511738259192782e-02  3.8729184692381929e-02  3.8499400866120220e-02  3.7826208395720019e-02  3.6720411120420210e-02  3.5199349996362733e-02  3.3286210358188843e-02  3.1009138442064672e-02  2.8400238527047064e-02  2.5494529662779951e-02  2.2328941018219313e-02  1.8941417458797901e-02  1.5370192821847088e-02  1.1653268949144632e-02  7.8281157985123744e-03  3.9315841593157881e-03  0.0000000000000000e+00  0.0000000000000000e+00  4.1717361255520355e-03  8.3044595498850474e-03  1.2359648198969682e-02  1.6298230038795491e-02  2.0080489021641740e-02  2.3666167330370729e-02  2.7014795232935925e-02  3.0086255687341110e-02  3.2841565538899588e-02  3.5243831213751117e-02  3.7259316601265101e-02  3.8858546348213709e-02  4.0017360523665453e-02  4.0717837320773373e-02  4.0949009126230569e-02  4.0707313114129270e-02  3.9996739005374586e-02  3.8828661713680553e-02  3.7221372855270551e-02  3.5199349996362775e-02  3.2792323650824497e-02  3.0034217394244604e-02  2.6962044577705888e-02  2.3614845267153788e-02  2.0032739249162979e-02  1.6256156053541086e-02  1.2325282461028672e-02  8.2797439430837370e-03  4.1585113088286338e-03  0.0000000000000000e+00  0.0000000000000000e+00  4.3496219751187268e-03  8.6587815327785929e-03  1.2887310337694238e-02  1.6994465952284866e-02  2.0938833050760910e-02  2.4678428872220812e-02  2.8171045755810132e-02  3.1374838431856664e-02  3.4249137366240558e-02  3.6755444468266750e-02  3.8858546348213695e-02  4.0527665157571578e-02  4.1737559396919671e-02  4.2469487739114992e-02  4.2711957882175314e-02  4.2461198893847876e-02  4.1721317876880125e-02  4.0504127923035961e-02  3.8828661713680532e-02  3.6720411120420245e-02  3.4210355255174657e-02  3.1333855497206346e-02  2.8129504563590750e-02  2.4638016912657389e-02  2.0901239718270789e-02  1.6961348177193619e-02  1.2860267584410879e-02  8.6393395677529915e-03  4.3392236002910570e-03  0.0000000000000000e+00  0.0000000000000000e+00  4.4781185385953911e-03  8.9147975599047514e-03  1.3268680111889647e-02  1.7497817133187293e-02  2.1559564967188111e-02  2.5410692752031092e-02  2.9007733685930535e-02  3.2307588287995424e-02  3.5268360622721234e-02  3.7850382707110566e-02  4.0017360523665439e-02  4.1737559396919595e-02  4.2984938542749339e-02  4.3740145206050067e-02  4.3991287964631941e-02  4.3734425655376892e-02  4.2973731371168979e-02  4.1721317876880153e-02  3.9996739005374649e-02  3.7826208395720068e-02  3.5241599741958285e-02  3.2279309345293661e-02  2.8979070631472714e-02  2.5382810600585910e-02  2.1533629952862055e-02  1.7474972749892060e-02  1.3250029538947543e-02  8.9013920832627033e-03  4.4709507618851839e-03  0.0000000000000000e+00  0.0000000000000000e+00  4.5552633900577755e-03  9.0685944152284967e-03  1.3497922675474498e-02  1.7800574213716888e-02  2.1933166453566851e-02  2.5851716247354398e-02  2.9511995800411864e-02  3.2870144945954451e-02  3.5883520630966267e-02  3.8511738259192782e-02  4.0717837320773394e-02  4.2469487739114985e-02  4.3740145206050088e-02  4.4510064316510473e-02  4.4767087563466701e-02  4.4507145366025964e-02  4.3734425655376913e-02  4.2461198893847911e-02  4.0707313114129354e-02  3.8499400866120269e-02  3.5869863215827788e-02  3.2855712923821417e-02  2.9497368031123471e-02  2.5837487467808937e-02  2.1919932000537785e-02  1.7788917725901656e-02  1.3488407031613803e-02  9.0617557159873106e-03  4.5516073795202720e-03  0.0000000000000000e+00  0.0000000000000000e+00  4.5798763254712343e-03  9.1178152641011971e-03  1.3571518496844454e-02  1.7898079575668479e-02  2.2053877481067893e-02  2.5994684064423269e-02  2.9676020506253065e-02  3.3053771521560485e-02  3.6085038287442917e-02  3.8729184692381929e-02  4.0949009126230604e-02  4.2711957882175335e-02  4.3991287964631982e-02  4.4767087563466701e-02  4.5027071683289746e-02  4.4767087563466687e-02  4.3991287964631934e-02  4.2711957882175314e-02  4.0949009126230576e-02  3.8729184692381964e-02  3.6085038287442972e-02  3.3053771521560575e-02  2.9676020506253141e-02  2.5994684064423325e-02  2.2053877481067973e-02  1.7898079575668541e-02  1.3571518496844499e-02  9.1178152641012197e-03  4.5798763254712481e-03  0.0000000000000000e+00  0.0000000000000000e+00  4.5516073795202590e-03  9.0617557159872932e-03  1.3488407031613773e-02  1.7788917725901618e-02  2.1919932000537747e-02  2.5837487467808892e-02  2.9497368031123395e-02  3.2855712923821341e-02  3.5869863215827753e-02  3.8499400866120269e-02  4.0707313114129368e-02  4.2461198893847953e-02  4.3734425655376954e-02  4.4507145366025985e-02  4.4767087563466701e-02  4.4510064316510466e-02  4.3740145206050053e-02  4.2469487739114957e-02  4.0717837320773366e-02  3.8511738259192810e-02  3.5883520630966316e-02  3.2870144945954520e-02  2.9511995800411934e-02  2.5851716247354446e-02  2.1933166453566910e-02  1.7800574213716926e-02  1.3497922675474531e-02  9.0685944152285227e-03  4.5552633900577894e-03  0.0000000000000000e+00  0.0000000000000000e+00  4.4709507618851761e-03  8.9013920832626877e-03  1.3250029538947524e-02  1.7474972749892043e-02  2.1533629952862024e-02  2.5382810600585910e-02  2.8979070631472675e-02  3.2279309345293612e-02  3.5241599741958236e-02  3.7826208395720116e-02  3.9996739005374704e-02  4.1721317876880194e-02  4.2973731371169055e-02  4.3734425655376968e-02  4.3991287964631975e-02  4.3740145206050067e-02  4.2984938542749325e-02  4.1737559396919616e-02  4.0017360523665439e-02  3.7850382707110615e-02  3.5268360622721269e-02  3.2307588287995466e-02  2.9007733685930577e-02  2.5410692752031134e-02  2.1559564967188145e-02  1.7497817133187318e-02  1.3268680111889676e-02  8.9147975599047809e-03  4.4781185385954075e-03  0.0000000000000000e+00  0.0000000000000000e+00  4.3392236002910527e-03  8.6393395677529846e-03  1.2860267584410869e-02  1.6961348177193608e-02  2.0901239718270761e-02  2.4638016912657386e-02  2.8129504563590722e-02  3.1333855497206305e-02  3.4210355255174636e-02  3.6720411120420272e-02  3.8828661713680608e-02  4.0504127923036017e-02  4.1721317876880180e-02  4.2461198893847939e-02  4.2711957882175342e-02  4.2469487739114978e-02  4.1737559396919630e-02  4.0527665157571557e-02  3.8858546348213702e-02  3.6755444468266792e-02  3.4249137366240578e-02  3.1374838431856691e-02  2.8171045755810122e-02  2.4678428872220808e-02  2.0938833050760924e-02  1.6994465952284873e-02  1.2887310337694259e-02  8.6587815327786154e-03  4.3496219751187372e-03  0.0000000000000000e+00  0.0000000000000000e+00  4.1585113088286312e-03  8.2797439430837283e-03  1.2325282461028663e-02  1.6256156053541086e-02  2.0032739249162983e-02  2.3614845267153805e-02  2.6962044577705888e-02  3.0034217394244563e-02  3.2792323650824462e-02  3.5199349996362789e-02  3.7221372855270572e-02  3.8828661713680587e-02  3.9996739005374662e-02  4.0707313114129326e-02  4.0949009126230590e-02  4.0717837320773373e-02  4.0017360523665446e-02  3.8858546348213688e-02  3.7259316601265101e-02  3.5243831213751152e-02  3.2841565538899629e-02  3.0086255687341128e-02  2.7014795232935890e-02  2.3666167330370694e-02  2.0080489021641734e-02  1.6298230038795502e-02  1.2359648198969687e-02  8.3044595498850560e-03  4.1717361255520424e-03  0.0000000000000000e+00  0.0000000000000000e+00  3.9315841593157898e-03  7.8281157985123778e-03  1.1653268949144643e-02  1.5370192821847104e-02  1.8941417458797915e-02  2.2328941018219327e-02  2.5494529662779944e-02  2.8400238527047050e-02  3.1009138442064686e-02  3.3286210358188871e-02  3.5199349996362796e-02  3.6720411120420279e-02  3.7826208395720054e-02  3.8499400866120248e-02  3.8729184692381950e-02  3.8511738259192782e-02  3.7850382707110573e-02  3.6755444468266771e-02  3.5243831213751166e-02  3.3338356358718707e-02  3.1066867628519120e-02  2.8461250210651712e-02  2.5556383276441434e-02  2.2389129394126316e-02  1.8997429552246363e-02  1.5419562886563404e-02  1.1693611133969948e-02  7.8571452220574361e-03  3.9471274730972098e-03  0.0000000000000000e+00  0.0000000000000000e+00  3.6617919570901625e-03  7.2911210422355096e-03  1.0854143738827383e-02  1.4316528729499350e-02  1.7643368686076799e-02  2.0799260633638725e-02  2.3748583959228433e-02  2.6455984213431316e-02  2.8887048676091941e-02  3.1009138442064686e-02  3.2792323650824476e-02  3.4210355255174678e-02  3.5241599741958292e-02  3.5869863215827753e-02  3.6085038287442951e-02  3.5883520630966267e-02  3.5268360622721227e-02  3.4249137366240592e-02  3.2841565538899664e-02  3.1066867628519151e-02  2.8950963129629838e-02  2.6523540313833527e-02  2.3817083943175228e-02  2.0865933047642556e-02  1.7705436615074028e-02  1.4371262408292585e-02  1.0898896410333522e-02  7.3233493670888817e-03  3.6790646134941332e-03  0.0000000000000000e+00  0.0000000000000000e+00  3.3529453931430953e-03  6.6763446929748085e-03  9.9391938015495895e-03  1.3110044033557630e-02  1.6156921149431697e-02  1.9047398001198125e-02  2.1748847713234976e-02  2.4228885167798132e-02  2.6455984213431333e-02  2.8400238527047074e-02  3.0034217394244604e-02  3.1333855497206353e-02  3.2279309345293661e-02  3.2855712923821390e-02  3.3053771521560554e-02  3.2870144945954492e-02  3.2307588287995438e-02  3.1374838431856712e-02  3.0086255687341190e-02  2.8461250210651767e-02  2.6523540313833558e-02  2.4300302671255047e-02  2.1821281587323511e-02  1.9117925237336603e-02  1.6222611109321671e-02  1.3168011366225895e-02  9.9866326870540357e-03  6.7105459440046280e-03  3.3713007084854897e-03  0.0000000000000000e+00  0.0000000000000000e+00  3.0091935147468114e-03  5.9920467176593295e-03  8.9207125633188836e-03  1.1766948655667353e-02  1.4502044477693994e-02  1.7096885503932319e-02  1.9522178832875905e-02  2.1748847713234952e-02  2.3748583959228454e-02  2.5494529662779958e-02  2.6962044577705905e-02  2.8129504563590733e-02  2.8979070631472682e-02  2.9497368031123419e-02  2.9676020506253099e-02  2.9511995800411910e-02  2.9007733685930556e-02  2.8171045755810174e-02  2.7014795232935984e-02  2.5556383276441490e-02  2.3817083943175256e-02  2.1821281587323521e-02  1.9595670949969109e-02  1.7168480911101212e-02  1.4568777827471532e-02  1.1825894109162011e-02  8.9690132558018845e-03  6.0269254349526926e-03  3.0279495194089697e-03  0.0000000000000000e+00  0.0000000000000000e+00  2.6349067707571320e-03  5.2469286713278680e-03  7.8116516855229598e-03  1.0304321845431303e-02  1.2699781283754139e-02  1.4972522824647562e-02  1.7096885503932308e-02  1.9047398001198094e-02  2.0799260633638714e-02  2.2328941018219316e-02  2.3614845267153801e-02  2.4638016912657386e-02  2.5382810600585906e-02  2.5837487467808902e-02  2.5994684064423294e-02  2.5851716247354439e-02  2.5410692752031141e-02  2.4678428872220850e-02  2.3666167330370781e-02  2.2389129394126375e-02  2.0865933047642601e-02  1.9117925237336637e-02  1.7168480911101222e-02  1.5042322236888459e-02  1.2764907002400747e-02  1.0361926250591571e-02  7.8589386447043431e-03  5.2811541913006885e-03  2.6533642836968664e-03  0.0000000000000000e+00  0.0000000000000000e+00  2.2345743038938068e-03  4.4499282309524747e-03  6.6253136539608480e-03  8.7397048822369875e-03  1.0771743362724278e-02  1.2699781283754135e-02  1.4502044477693963e-02  1.6156921149431659e-02  1.7643368686076764e-02  1.8941417458797905e-02  2.0032739249162962e-02  2.0901239718270789e-02  2.1533629952862045e-02  2.1919932000537753e-02  2.2053877481067952e-02  2.1933166453566917e-02  2.1559564967188159e-02  2.0938833050760951e-02  2.0080489021641793e-02  1.8997429552246415e-02  1.7705436615074073e-02  1.6222611109321706e-02  1.4568777827471553e-02  1.2764907002400766e-02  1.0832593967365134e-02  8.7936308849583481e-03  6.6696938941636936e-03  4.4821565789127469e-03  2.2520277996819823e-03  0.0000000000000000e+00  0.0000000000000000e+00  1.8127227980043491e-03  3.6100556732441926e-03  5.3751055179969724e-03  7.0907732361974408e-03  8.7397048822369840e-03  1.0304321845431294e-02  1.1766948655667329e-02  1.3110044033557594e-02  1.4316528729499322e-02  1.5370192821847088e-02  1.6256156053541075e-02  1.6961348177193612e-02  1.7474972749892060e-02  1.7788917725901635e-02  1.7898079575668517e-02  1.7800574213716922e-02  1.7497817133187335e-02  1.6994465952284901e-02  1.6298230038795537e-02  1.5419562886563442e-02  1.4371262408292616e-02  1.3168011366225925e-02  1.1825894109162030e