<?xml version="1.0"?>
<VTKFile type="UnstructuredGrid"  version="0.1"  >
<UnstructuredGrid>
<Piece  NumberOfPoints="961" NumberOfCells="1800">
<Points>
<DataArray  type="Float64"  NumberOfComponents="3"  format="ascii">-2 -2 0  -1.866666666666667 -2 0  -1.733333333333333 -2 0  -1.6 -2 0  -1.466666666666667 -2 0  -1.333333333333333 -2 0  -1.2 -2 0  -1.066666666666667 -2 0  -0.9333333333333333 -2 0  -0.8 -2 0  -0.6666666666666667 -2 0  -0.5333333333333334 -2 0  -0.3999999999999999 -2 0  -0.2666666666666666 -2 0  -0.1333333333333333 -2 0  0 -2 0  0.1333333333333333 -2 0  0.2666666666666666 -2 0  0.3999999999999999 -2 0  0.5333333333333332 -2 0  0.6666666666666665 -2 0  0.7999999999999998 -2 0  0.9333333333333331 -2 0  1.066666666666667 -2 0  1.2 -2 0  1.333333333333333 -2 0  1.466666666666667 -2 0  1.6 -2 0  1.733333333333333 -2 0  1.866666666666667 -2 0  2 -2 0  -2 -1.866666666666667 0  -1.866666666666667 -1.866666666666667 0  -1.733333333333333 -1.866666666666667 0  -1.6 -1.866666666666667 0  -1.466666666666667 -1.866666666666667 0  -1.333333333333333 -1.866666666666667 0  -1.2 -1.866666666666667 0  -1.066666666666667 -1.866666666666667 0  -0.9333333333333333 -1.866666666666667 0  -0.8 -1.866666666666667 0  -0.6666666666666667 -1.866666666666667 0  -0.5333333333333334 -1.866666666666667 0  -0.3999999999999999 -1.866666666666667 0  -0.2666666666666666 -1.866666666666667 0  -0.1333333333333333 -1.866666666666667 0  0 -1.866666666666667 0  0.1333333333333333 -1.866666666666667 0  0.2666666666666666 -1.866666666666667 0  0.3999999999999999 -1.866666666666667 0  0.5333333333333332 -1.866666666666667 0  0.6666666666666665 -1.866666666666667 0  0.7999999999999998 -1.866666666666667 0  0.9333333333333331 -1.866666666666667 0  1.066666666666667 -1.866666666666667 0  1.2 -1.866666666666667 0  1.333333333333333 -1.866666666666667 0  1.466666666666667 -1.866666666666667 0  1.6 -1.866666666666667 0  1.733333333333333 -1.866666666666667 0  1.866666666666667 -1.866666666666667 0  2 -1.866666666666667 0  -2 -1.733333333333333 0  -1.866666666666667 -1.733333333333333 0  -1.733333333333333 -1.733333333333333 0  -1.6 -1.733333333333333 0  -1.466666666666667 -1.733333333333333 0  -1.333333333333333 -1.733333333333333 0  -1.2 -1.733333333333333 0  -1.066666666666667 -1.733333333333333 0  -0.9333333333333333 -1.733333333333333 0  -0.8 -1.733333333333333 0  -0.6666666666666667 -1.733333333333333 0  -0.5333333333333334 -1.733333333333333 0  -0.3999999999999999 -1.733333333333333 0  -0.2666666666666666 -1.733333333333333 0  -0.1333333333333333 -1.733333333333333 0  0 -1.733333333333333 0  0.1333333333333333 -1.733333333333333 0  0.2666666666666666 -1.733333333333333 0  0.3999999999999999 -1.733333333333333 0  0.5333333333333332 -1.733333333333333 0  0.6666666666666665 -1.733333333333333 0  0.7999999999999998 -1.733333333333333 0  0.9333333333333331 -1.733333333333333 0  1.066666666666667 -1.733333333333333 0  1.2 -1.733333333333333 0  1.333333333333333 -1.733333333333333 0  1.466666666666667 -1.733333333333333 0  1.6 -1.733333333333333 0  1.733333333333333 -1.733333333333333 0  1.866666666666667 -1.733333333333333 0  2 -1.733333333333333 0  -2 -1.6 0  -1.866666666666667 -1.6 0  -1.733333333333333 -1.6 0  -1.6 -1.6 0  -1.466666666666667 -1.6 0  -1.333333333333333 -1.6 0  -1.2 -1.6 0  -1.066666666666667 -1.6 0  -0.9333333333333333 -1.6 0  -0.8 -1.6 0  -0.6666666666666667 -1.6 0  -0.5333333333333334 -1.6 0  -0.3999999999999999 -1.6 0  -0.2666666666666666 -1.6 0  -0.1333333333333333 -1.6 0  0 -1.6 0  0.1333333333333333 -1.6 0  0.2666666666666666 -1.6 0  0.3999999999999999 -1.6 0  0.5333333333333332 -1.6 0  0.6666666666666665 -1.6 0  0.7999999999999998 -1.6 0  0.9333333333333331 -1.6 0  1.066666666666667 -1.6 0  1.2 -1.6 0  1.333333333333333 -1.6 0  1.466666666666667 -1.6 0  1.6 -1.6 0  1.733333333333333 -1.6 0  1.866666666666667 -1.6 0  2 -1.6 0  -2 -1.466666666666667 0  -1.866666666666667 -1.466666666666667 0  -1.733333333333333 -1.466666666666667 0  -1.6 -1.466666666666667 0  -1.466666666666667 -1.466666666666667 0  -1.333333333333333 -1.466666666666667 0  -1.2 -1.466666666666667 0  -1.066666666666667 -1.466666666666667 0  -0.9333333333333333 -1.466666666666667 0  -0.8 -1.466666666666667 0  -0.6666666666666667 -1.466666666666667 0  -0.5333333333333334 -1.466666666666667 0  -0.3999999999999999 -1.466666666666667 0  -0.2666666666666666 -1.466666666666667 0  -0.1333333333333333 -1.466666666666667 0  0 -1.466666666666667 0  0.1333333333333333 -1.466666666666667 0  0.2666666666666666 -1.466666666666667 0  0.3999999999999999 -1.466666666666667 0  0.5333333333333332 -1.466666666666667 0  0.6666666666666665 -1.466666666666667 0  0.7999999999999998 -1.466666666666667 0  0.9333333333333331 -1.466666666666667 0  1.066666666666667 -1.466666666666667 0  1.2 -1.466666666666667 0  1.333333333333333 -1.466666666666667 0  1.466666666666667 -1.466666666666667 0  1.6 -1.466666666666667 0  1.733333333333333 -1.466666666666667 0  1.866666666666667 -1.466666666666667 0  2 -1.466666666666667 0  -2 -1.333333333333333 0  -1.866666666666667 -1.333333333333333 0  -1.733333333333333 -1.333333333333333 0  -1.6 -1.333333333333333 0  -1.466666666666667 -1.333333333333333 0  -1.333333333333333 -1.333333333333333 0  -1.2 -1.333333333333333 0  -1.066666666666667 -1.333333333333333 0  -0.9333333333333333 -1.333333333333333 0  -0.8 -1.333333333333333 0  -0.6666666666666667 -1.333333333333333 0  -0.5333333333333334 -1.333333333333333 0  -0.3999999999999999 -1.333333333333333 0  -0.2666666666666666 -1.333333333333333 0  -0.1333333333333333 -1.333333333333333 0  0 -1.333333333333333 0  0.1333333333333333 -1.333333333333333 0  0.2666666666666666 -1.333333333333333 0  0.3999999999999999 -1.333333333333333 0  0.5333333333333332 -1.333333333333333 0  0.6666666666666665 -1.333333333333333 0  0.7999999999999998 -1.333333333333333 0  0.9333333333333331 -1.333333333333333 0  1.066666666666667 -1.333333333333333 0  1.2 -1.333333333333333 0  1.333333333333333 -1.333333333333333 0  1.466666666666667 -1.333333333333333 0  1.6 -1.333333333333333 0  1.733333333333333 -1.333333333333333 0  1.866666666666667 -1.333333333333333 0  2 -1.333333333333333 0  -2 -1.2 0  -1.866666666666667 -1.2 0  -1.733333333333333 -1.2 0  -1.6 -1.2 0  -1.466666666666667 -1.2 0  -1.333333333333333 -1.2 0  -1.2 -1.2 0  -1.066666666666667 -1.2 0  -0.9333333333333333 -1.2 0  -0.8 -1.2 0  -0.6666666666666667 -1.2 0  -0.5333333333333334 -1.2 0  -0.3999999999999999 -1.2 0  -0.2666666666666666 -1.2 0  -0.1333333333333333 -1.2 0  0 -1.2 0  0.1333333333333333 -1.2 0  0.2666666666666666 -1.2 0  0.3999999999999999 -1.2 0  0.5333333333333332 -1.2 0  0.6666666666666665 -1.2 0  0.7999999999999998 -1.2 0  0.9333333333333331 -1.2 0  1.066666666666667 -1.2 0  1.2 -1.2 0  1.333333333333333 -1.2 0  1.466666666666667 -1.2 0  1.6 -1.2 0  1.733333333333333 -1.2 0  1.866666666666667 -1.2 0  2 -1.2 0  -2 -1.066666666666667 0  -1.866666666666667 -1.066666666666667 0  -1.733333333333333 -1.066666666666667 0  -1.6 -1.066666666666667 0  -1.466666666666667 -1.066666666666667 0  -1.333333333333333 -1.066666666666667 0  -1.2 -1.066666666666667 0  -1.066666666666667 -1.066666666666667 0  -0.9333333333333333 -1.066666666666667 0  -0.8 -1.066666666666667 0  -0.6666666666666667 -1.066666666666667 0  -0.5333333333333334 -1.066666666666667 0  -0.3999999999999999 -1.066666666666667 0  -0.2666666666666666 -1.066666666666667 0  -0.1333333333333333 -1.066666666666667 0  0 -1.066666666666667 0  0.1333333333333333 -1.066666666666667 0  0.2666666666666666 -1.066666666666667 0  0.3999999999999999 -1.066666666666667 0  0.5333333333333332 -1.066666666666667 0  0.6666666666666665 -1.066666666666667 0  0.7999999999999998 -1.066666666666667 0  0.9333333333333331 -1.066666666666667 0  1.066666666666667 -1.066666666666667 0  1.2 -1.066666666666667 0  1.333333333333333 -1.066666666666667 0  1.466666666666667 -1.066666666666667 0  1.6 -1.066666666666667 0  1.733333333333333 -1.066666666666667 0  1.866666666666667 -1.066666666666667 0  2 -1.066666666666667 0  -2 -0.9333333333333333 0  -1.866666666666667 -0.9333333333333333 0  -1.733333333333333 -0.9333333333333333 0  -1.6 -0.9333333333333333 0  -1.466666666666667 -0.9333333333333333 0  -1.333333333333333 -0.9333333333333333 0  -1.2 -0.9333333333333333 0  -1.066666666666667 -0.9333333333333333 0  -0.9333333333333333 -0.9333333333333333 0  -0.8 -0.9333333333333333 0  -0.6666666666666667 -0.9333333333333333 0  -0.5333333333333334 -0.9333333333333333 0  -0.3999999999999999 -0.9333333333333333 0  -0.2666666666666666 -0.9333333333333333 0  -0.1333333333333333 -0.9333333333333333 0  0 -0.9333333333333333 0  0.1333333333333333 -0.9333333333333333 0  0.2666666666666666 -0.9333333333333333 0  0.3999999999999999 -0.9333333333333333 0  0.5333333333333332 -0.9333333333333333 0  0.6666666666666665 -0.9333333333333333 0  0.7999999999999998 -0.9333333333333333 0  0.9333333333333331 -0.9333333333333333 0  1.066666666666667 -0.9333333333333333 0  1.2 -0.9333333333333333 0  1.333333333333333 -0.9333333333333333 0  1.466666666666667 -0.9333333333333333 0  1.6 -0.9333333333333333 0  1.733333333333333 -0.9333333333333333 0  1.866666666666667 -0.9333333333333333 0  2 -0.9333333333333333 0  -2 -0.8 0  -1.866666666666667 -0.8 0  -1.733333333333333 -0.8 0  -1.6 -0.8 0  -1.466666666666667 -0.8 0  -1.333333333333333 -0.8 0  -1.2 -0.8 0  -1.066666666666667 -0.8 0  -0.9333333333333333 -0.8 0  -0.8 -0.8 0  -0.6666666666666667 -0.8 0  -0.5333333333333334 -0.8 0  -0.3999999999999999 -0.8 0  -0.2666666666666666 -0.8 0  -0.1333333333333333 -0.8 0  0 -0.8 0  0.1333333333333333 -0.8 0  0.2666666666666666 -0.8 0  0.3999999999999999 -0.8 0  0.5333333333333332 -0.8 0  0.6666666666666665 -0.8 0  0.7999999999999998 -0.8 0  0.9333333333333331 -0.8 0  1.066666666666667 -0.8 0  1.2 -0.8 0  1.333333333333333 -0.8 0  1.466666666666667 -0.8 0  1.6 -0.8 0  1.733333333333333 -0.8 0  1.866666666666667 -0.8 0  2 -0.8 0  -2 -0.6666666666666667 0  -1.866666666666667 -0.
[...]
<PointData  Scalars="f_12"> 
<DataArray  type="Float64"  Name="f_12"  format="ascii">0.0000000000000000e+00  0.0000000000000000e+00  0.0000000000000000e+00  0.0000000000000000e+00  0.0000000000000000e+00  0.0000000000000000e+00  0.0000000000000000e+00  0.0000000000000000e+00  0.0000000000000000e+00  0.0000000000000000e+00  0.0000000000000000e+00  0.0000000000000000e+00  0.0000000000000000e+00  0.0000000000000000e+00  0.0000000000000000e+00  0.0000000000000000e+00  0.0000000000000000e+00  0.0000000000000000e+00  0.0000000000000000e+00  0.0000000000000000e+00  0.0000000000000000e+00  0.0000000000000000e+00  0.0000000000000000e+00  0.0000000000000000e+00  0.0000000000000000e+00  0.0000000000000000e+00  0.0000000000000000e+00  0.0000000000000000e+00  0.0000000000000000e+00  0.0000000000000000e+00  0.0000000000000000e+00  0.0000000000000000e+00  4.5715309863201707e-04  9.0930383017796227e-04  1.3524225420264218e-03  1.7822890688319378e-03  2.1945799772116557e-03  2.5849178634923878e-03  2.9489236783815220e-03  3.2822843720478881e-03  3.5808379436751557e-03  3.8406731671859450e-03  4.0582384474221918e-03  4.2304525607650724e-03  4.3548092443380379e-03  4.4294676658352180e-03  4.4533216773090670e-03  4.4260423281836277e-03  4.3480902259570315e-03  4.2206967803303181e-03  4.0458159106338942e-03  3.8260501927040468e-03  3.5645574417902818e-03  3.2649451847901610e-03  2.9311612414368634e-03  2.5673886634731279e-03  2.1779526290318612e-03  1.7672457594481072e-03  1.3396772052810669e-03  8.9965098969589337e-04  4.5158429954707290e-04  0.0000000000000000e+00  0.0000000000000000e+00  9.0930383017796292e-04  1.8090815870543064e-03  2.6910342945200634e-03  3.5466760676408039e-03  4.3673726217974169e-03  5.1444010196865517e-03  5.8690416364474791e-03  6.5327083575364171e-03  7.1271159745196775e-03  7.6444777770563830e-03  8.0777217879818702e-03  8.4207110341283312e-03  8.6684517798336132e-03  8.8172738173404631e-03  8.8649686488088339e-03  8.8108745214328568e-03  8.6559014799907873e-03  8.4024944706961781e-03  8.0545375954203628e-03  7.6172073890075258e-03  7.0967870193265952e-03  6.5004562127749816e-03  5.8360732279307140e-03  5.1119652270096207e-03  4.3367419918589828e-03  3.5191453557813840e-03  2.6679434511097107e-03  1.7918756005332428e-03  8.9965098969589381e-04  0.0000000000000000e+00  0.0000000000000000e+00  1.3524225420264210e-03  2.6910342945200626e-03  4.0033080318258012e-03  5.2765341747533718e-03  6.4978277816491650e-03  7.6541925057712640e-03  8.7326459001082091e-03  9.7204076814924514e-03  1.0605146068001564e-02  1.1375270355754450e-02  1.2020251951076637e-02  1.2530951864447099e-02  1.2899930623253222e-02  1.3121716856257508e-02  1.3193013405013962e-02  1.3112824469766029e-02  1.2882493548057735e-02  1.2505649168892415e-02  1.1988062964640054e-02  1.1337431731819029e-02  1.0563101130865084e-02  9.6757529979329231e-03  8.6870804927916007e-03  7.6094753008132373e-03  6.4557488887241905e-03  5.2389056492533866e-03  3.9719800899861192e-03  2.6679434511097120e-03  1.3396772052810678e-03  0.0000000000000000e+00  0.0000000000000000e+00  1.7822890688319374e-03  3.5466760676408039e-03  5.2765341747533718e-03  6.9550427016623227e-03  8.5651797645165100e-03  1.0089793490068590e-02  1.1511758927556893e-02  1.2814221316257347e-02  1.3980917932159916e-02  1.4996562107328526e-02  1.5847265546357538e-02  1.6520969718322044e-02  1.7007854495979548e-02  1.7300692640875855e-02  1.7395122172436394e-02  1.7289814789828280e-02  1.6986526751326007e-02  1.6490028165011991e-02  1.5807916587144241e-02  1.4950330204062246e-02  1.3929583791747708e-02  1.2759756352502750e-02  1.1456262289278442e-02  1.0035437934085706e-02  8.5141722270919776e-03  6.9096046491622402e-03  5.2389056492533935e-03  3.5191453557813879e-03  1.7672457594481090e-03  0.0000000000000000e+00  0.0000000000000000e+00  2.1945799772116552e-03  4.3673726217974169e-03  6.4978277816491658e-03  8.5651797645165100e-03  1.0548433482803696e-02  1.2426445806206736e-02  1.4178113514277660e-02  1.5782669066062158e-02  1.7220074388269252e-02  1.8471492188191593e-02  1.9519805170185818e-02  2.0350147019290263e-02  2.0950405843273536e-02  2.1311661302377632e-02  2.1428520889359887e-02  2.1299328364927560e-02  2.0926227490154985e-02  2.0315075956372292e-02  1.9475216663180053e-02  1.8419125058316648e-02  1.7161961020161078e-02  1.5721060804308153e-02  1.4115408228380838e-02  1.2365124203134261e-02  1.0491009958459795e-02  8.5141722270919845e-03  6.4557488887241991e-03  4.3367419918589872e-03  2.1779526290318638e-03  0.0000000000000000e+00  0.0000000000000000e+00  2.5849178634923869e-03  5.1444010196865517e-03  7.6541925057712719e-03  1.0089793490068593e-02  1.2426445806206741e-02  1.4639224709642577e-02  1.6703256966636500e-02  1.8594066431611024e-02  2.0288035780920120e-02  2.1762960271703779e-02  2.2998658581792758e-02  2.3977598095701699e-02  2.4685488255053848e-02  2.5111796211785074e-02  2.5250143992585201e-02  2.5098555252460731e-02  2.4659531625730889e-02  2.3939952532499656e-02  2.2950806736318372e-02  2.1706777585571040e-02  2.0225715398320673e-02  1.8528038768028485e-02  1.6636110891525595e-02  1.4573636956545916e-02  1.2365124203134268e-02  1.0035437934085713e-02  7.6094753008132459e-03  5.1119652270096251e-03  2.5673886634731305e-03  0.0000000000000000e+00  0.0000000000000000e+00  2.9489236783815224e-03  5.8690416364474808e-03  8.7326459001082195e-03  1.1511758927556898e-02  1.4178113514277666e-02  1.6703256966636507e-02  1.9058797729278962e-02  2.1216797526728337e-02  2.3150296405797223e-02  2.4833943291006532e-02  2.6244692235530272e-02  2.7362515720715779e-02  2.8171082042877566e-02  2.8658344499355202e-02  2.8816995726367194e-02  2.8644750636681659e-02  2.8144435001915602e-02  2.7323872521918206e-02  2.6195579704005802e-02  2.4776293452476013e-02  2.3086369448333029e-02  2.1149098922142805e-02  1.8989996391019899e-02  1.6636110891525613e-02  1.4115408228380847e-02  1.1456262289278442e-02  8.6870804927916007e-03  5.8360732279307140e-03  2.9311612414368638e-03  0.0000000000000000e+00  0.0000000000000000e+00  3.2822843720478915e-03  6.5327083575364240e-03  9.7204076814924687e-03  1.2814221316257368e-02  1.5782669066062172e-02  1.8594066431611045e-02  2.1216797526728347e-02  2.3619749892869368e-02  2.5772897475476356e-02  2.7648001464940550e-02  2.9219384782341064e-02  3.0464726095195415e-02  3.1365814390980053e-02  3.1909205838047128e-02  3.2086730901920005e-02  3.1895810891544821e-02  3.1339558225898456e-02  3.0426652290753278e-02  2.9171001109071927e-02  2.7591216410886448e-02  2.5709944392566270e-02  2.3553105097032592e-02  2.1149098922142808e-02  1.8528038768028488e-02  1.5721060804308157e-02  1.2759756352502750e-02  9.6757529979329161e-03  6.5004562127749807e-03  3.2649451847901610e-03  0.0000000000000000e+00  0.0000000000000000e+00  3.5808379436751601e-03  7.1271159745196931e-03  1.0605146068001590e-02  1.3980917932159968e-02  1.7220074388269290e-02  2.0288035780920158e-02  2.3150296405797254e-02  2.5772897475476376e-02  2.8123061904697870e-02  3.0169958055534289e-02  3.1885544321424084e-02  3.3245435566642938e-02  3.4229727076525322e-02  3.4823712383814188e-02  3.5018438095100489e-02  3.4811051031387721e-02  3.4204909465863062e-02  3.3209449414757446e-02  3.1839816971292026e-02  3.0116296640871915e-02  2.8063581716620566e-02  2.5709944392566287e-02  2.3086369448333043e-02  2.0225715398320694e-02  1.7161961020161098e-02  1.3929583791747725e-02  1.0563101130865104e-02  7.0967870193266057e-03  3.5645574417902865e-03  0.0000000000000000e+00  0.0000000000000000e+00  3.8406731671859506e-03  7.6444777770563986e-03  1.1375270355754480e-02  1.4996562107328566e-02  1.8471492188191656e-02  2.1762960271703827e-02  2.4833943291006570e-02  2.7648001464940574e-02  3.0169958055534303e-02  3.2366717801156408e-02  3.4208172541370423e-02  3.5668130834925496e-02  3.6725202557886957e-02  3.7363570170237864e-02  3.7573585536034793e-02  3.7352144216632369e-02  3.6702806795898719e-02  3.5635657353456397e-02  3.4166910701299860e-02  3.2318300372401729e-02  3.0116296640871967e-02  2.7591216410886500e-02  2.4776293452476051e-02  2.1706777585571074e-02  1.8419125058316683e-02  1.4950330204062274e-02  1.1337431731819064e-02  7.6172073890075458e-03  3.8260501927040572e-03  0.0000000000000000e+00  0.0000000000000000e+00  4.0582384474221952e-03  8.0777217879818789e-03  1.2020251951076658e-02  1.5847265546357559e-02  1.9519805170185856e-02  2.2998658581792800e-02  2.6244692235530304e-02  2.9219384782341096e-02  3.1885544321424104e-02  3.4208172541370423e-02  3.6155421481252795e-02  3.7699576203474840e-02  3.8817990461813744e-02  3.9493903126264482e-02  3.9717070675063283e-02  3.9484164793680020e-02  3.8798902732166220e-02  3.7671899785804340e-02  3.6120255992909446e-02  3.4166910701299930e-02  3.1839816971292130e-02  2.9171001109072017e-02  2.6195579704005836e-02  2.2950806736318431e-02  1.9475216663180115e-02  1.5807916587144286e-02  1.1988062964640091e-02  8.0545375954203871e-03  4.0458159106339098e-03  0.0000000000000000e+00  0.0000000000000000e+00  4.2304525607650715e-03  8.4207110341283312e-03  1.2530951864447111e-02  1.6520969718322055e-02  2.0350147019290287e-02  2.3977598095701724e-02  2.7362515720715800e-02  3.0464726095195439e-02  3.3245435566642965e-02  3.5668130834925524e-02  3.7699576203474805e-02  3.9310838410343552e-02  4.0478263037254769e-02  4.1184327137330355e-02  4.1418300533325257e-02  4.1176662504468248e-02  4.0463239952487948e-02  3.9289055763284453e-02  3.7671899785804361e-02  3.5635657353456446e-02  3.3209449414757529e-02  3.0426652290753368e-02  2.7323872521918282e-02  2.3939952532499722e-02  2.0315075956372379e-02  1.6490028165012049e-02  1.2505649168892456e-02  8.4024944706962076e-03  4.2206967803303337e-03  0.0000000000000000e+00  0.0000000000000000e+00  4.3548092443380362e-03  8.6684517798336150e-03  1.2899930623253220e-02  1.7007854495979552e-02  2.0950405843273526e-02  2.4685488255053845e-02  2.8171082042877566e-02  3.1365814390980080e-02  3.4229727076525343e-02  3.6725202557886978e-02  3.8817990461813709e-02  4.0478263037254721e-02  4.1681621351133527e-02  4.2409974597527919e-02  4.2652222872961602e-02  4.2404688408684769e-02  4.1671260162361924e-02  4.0463239952487989e-02  3.8798902732166254e-02  3.6702806795898768e-02  3.4204909465863145e-02  3.1339558225898546e-02  2.8144435001915685e-02  2.4659531625730959e-02  2.0926227490155061e-02  1.6986526751326073e-02  1.2882493548057780e-02  8.6559014799908185e-03  4.3480902259570471e-03  0.0000000000000000e+00  0.0000000000000000e+00  4.4294676658352223e-03  8.8172738173404666e-03  1.3121716856257515e-02  1.7300692640875855e-02  2.1311661302377629e-02  2.5111796211785085e-02  2.8658344499355205e-02  3.1909205838047135e-02  3.4823712383814182e-02  3.7363570170237871e-02  3.9493903126264475e-02  4.1184327137330327e-02  4.2409974597527926e-02  4.3152390441190923e-02  4.3400228699913765e-02  4.3149693471501493e-02  4.2404688408684804e-02  4.1176662504468262e-02  3.9484164793680047e-02  3.7352144216632410e-02  3.4811051031387784e-02  3.1895810891544904e-02  2.8644750636681759e-02  2.5098555252460800e-02  2.1299328364927629e-02  1.7289814789828342e-02  1.3112824469766074e-02  8.8108745214328880e-03  4.4260423281836441e-03  0.0000000000000000e+00  0.0000000000000000e+00  4.4533216773090713e-03  8.8649686488088443e-03  1.3193013405013965e-02  1.7395122172436397e-02  2.1428520889359901e-02  2.5250143992585225e-02  2.8816995726367201e-02  3.2086730901920012e-02  3.5018438095100496e-02  3.7573585536034793e-02  3.9717070675063325e-02  4.1418300533325292e-02  4.2652222872961644e-02  4.3400228699913758e-02  4.3650854652487865e-02  4.3400228699913737e-02  4.2652222872961595e-02  4.1418300533325236e-02  3.9717070675063290e-02  3.7573585536034813e-02  3.5018438095100524e-02  3.2086730901920074e-02  2.8816995726367270e-02  2.5250143992585281e-02  2.1428520889359957e-02  1.7395122172436456e-02  1.3193013405014001e-02  8.8649686488088634e-03  4.4533216773090809e-03  0.0000000000000000e+00  0.0000000000000000e+00  4.4260423281836355e-03  8.8108745214328724e-03  1.3112824469766044e-02  1.7289814789828304e-02  2.1299328364927594e-02  2.5098555252460755e-02  2.8644750636681690e-02  3.1895810891544842e-02  3.4811051031387763e-02  3.7352144216632403e-02  3.9484164793680096e-02  4.1176662504468310e-02  4.2404688408684846e-02  4.3149693471501542e-02  4.3400228699913772e-02  4.3152390441190916e-02  4.2409974597527891e-02  4.1184327137330286e-02  3.9493903126264440e-02  3.7363570170237892e-02  3.4823712383814244e-02  3.1909205838047204e-02  2.8658344499355264e-02  2.5111796211785137e-02  2.1311661302377705e-02  1.7300692640875904e-02  1.3121716856257548e-02  8.8172738173404874e-03  4.4294676658352345e-03  0.0000000000000000e+00  0.0000000000000000e+00  4.3480902259570384e-03  8.6559014799908029e-03  1.2882493548057754e-02  1.6986526751326045e-02  2.0926227490155033e-02  2.4659531625730924e-02  2.8144435001915616e-02  3.1339558225898484e-02  3.4204909465863090e-02  3.6702806795898782e-02  3.8798902732166310e-02  4.0463239952488010e-02  4.1671260162361959e-02  4.2404688408684867e-02  4.2652222872961623e-02  4.2409974597527905e-02  4.1681621351133506e-02  4.0478263037254721e-02  3.8817990461813723e-02  3.6725202557886992e-02  3.4229727076525371e-02  3.1365814390980129e-02  2.8171082042877618e-02  2.4685488255053897e-02  2.0950405843273588e-02  1.7007854495979587e-02  1.2899930623253246e-02  8.6684517798336341e-03  4.3548092443380509e-03  0.0000000000000000e+00  0.0000000000000000e+00  4.2206967803303276e-03  8.4024944706961955e-03  1.2505649168892442e-02  1.6490028165012029e-02  2.0315075956372362e-02  2.3939952532499708e-02  2.7323872521918247e-02  3.0426652290753316e-02  3.3209449414757508e-02  3.5635657353456460e-02  3.7671899785804389e-02  3.9289055763284501e-02  4.0463239952487989e-02  4.1176662504468296e-02  4.1418300533325264e-02  4.1184327137330327e-02  4.0478263037254748e-02  3.9310838410343510e-02  3.7699576203474812e-02  3.5668130834925517e-02  3.3245435566642979e-02  3.0464726095195471e-02  2.7362515720715821e-02  2.3977598095701734e-02  2.0350147019290311e-02  1.6520969718322075e-02  1.2530951864447124e-02  8.4207110341283486e-03  4.2304525607650819e-03  0.0000000000000000e+00  0.0000000000000000e+00  4.0458159106339046e-03  8.0545375954203819e-03  1.1988062964640079e-02  1.5807916587144276e-02  1.9475216663180087e-02  2.2950806736318434e-02  2.6195579704005840e-02  2.9171001109071979e-02  3.1839816971292109e-02  3.4166910701299923e-02  3.6120255992909495e-02  3.7671899785804382e-02  3.8798902732166261e-02  3.9484164793680068e-02  3.9717070675063311e-02  3.9493903126264475e-02  3.8817990461813723e-02  3.7699576203474791e-02  3.6155421481252809e-02  3.4208172541370471e-02  3.1885544321424139e-02  2.9219384782341127e-02  2.6244692235530304e-02  2.2998658581792779e-02  1.9519805170185842e-02  1.5847265546357577e-02  1.2020251951076659e-02  8.0777217879818911e-03  4.0582384474222031e-03  0.0000000000000000e+00  0.0000000000000000e+00  3.8260501927040577e-03  7.6172073890075475e-03  1.1337431731819069e-02  1.4950330204062284e-02  1.8419125058316693e-02  2.1706777585571088e-02  2.4776293452476044e-02  2.7591216410886490e-02  3.0116296640871971e-02  3.2318300372401770e-02  3.4166910701299943e-02  3.5635657353456467e-02  3.6702806795898782e-02  3.7352144216632396e-02  3.7573585536034793e-02  3.7363570170237864e-02  3.6725202557886964e-02  3.5668130834925517e-02  3.4208172541370464e-02  3.2366717801156485e-02  3.0169958055534369e-02  2.7648001464940612e-02  2.4833943291006605e-02  2.1762960271703834e-02  1.8471492188191673e-02  1.4996562107328585e-02  1.1375270355754485e-02  7.6444777770564108e-03  3.8406731671859636e-03  0.0000000000000000e+00  0.0000000000000000e+00  3.5645574417902909e-03  7.0967870193266169e-03  1.0563101130865124e-02  1.3929583791747750e-02  1.7161961020161123e-02  2.0225715398320725e-02  2.3086369448333061e-02  2.5709944392566290e-02  2.8063581716620597e-02  3.0116296640871985e-02  3.1839816971292123e-02  3.3209449414757557e-02  3.4204909465863138e-02  3.4811051031387777e-02  3.5018438095100503e-02  3.4823712383814195e-02  3.4229727076525322e-02  3.3245435566642993e-02  3.1885544321424188e-02  3.0169958055534407e-02  2.8123061904697981e-02  2.5772897475476477e-02  2.3150296405797317e-02  2.0288035780920196e-02  1.7220074388269328e-02  1.3980917932159999e-02  1.0605146068001611e-02  7.1271159745197087e-03  3.5808379436751722e-03  0.0000000000000000e+00  0.0000000000000000e+00  3.2649451847901719e-03  6.5004562127750050e-03  9.6757529979329595e-03  1.2759756352502790e-02  1.5721060804308191e-02  1.8528038768028533e-02  2.1149098922142846e-02  2.3553105097032616e-02  2.5709944392566308e-02  2.7591216410886511e-02  2.9171001109072017e-02  3.0426652290753368e-02  3.1339558225898553e-02  3.1895810891544890e-02  3.2086730901920067e-02  3.1909205838047183e-02  3.1365814390980115e-02  3.0464726095195488e-02  2.9219384782341189e-02  2.7648001464940685e-02  2.5772897475476512e-02  2.3619749892869499e-02  2.1216797526728445e-02  1.8594066431611107e-02  1.5782669066062242e-02  1.2814221316257413e-02  9.7204076814924999e-03  6.5327083575364465e-03  3.2822843720479037e-03  0.0000000000000000e+00  0.0000000000000000e+00  2.9311612414368734e-03  5.8360732279307348e-03  8.6870804927916337e-03  1.1456262289278478e-02  1.4115408228380897e-02  1.6636110891525651e-02  1.8989996391019937e-02  2.1149098922142825e-02  2.3086369448333064e-02  2.4776293452476051e-02  2.6195579704005850e-02  2.7323872521918268e-02  2.8144435001915654e-02  2.8644750636681728e-02  2.8816995726367246e-02  2.8658344499355247e-02  2.8171082042877601e-02  2.7362515720715855e-02  2.6244692235530376e-02  2.4833943291006643e-02  2.3150296405797341e-02  2.1216797526728465e-02  1.9058797729279060e-02  1.6703256966636579e-02  1.4178113514277720e-02  1.1511758927556938e-02  8.7326459001082404e-03  5.8690416364474965e-03  2.9489236783815319e-03  0.0000000000000000e+00  0.0000000000000000e+00  2.5673886634731365e-03  5.1119652270096389e-03  7.6094753008132694e-03  1.0035437934085739e-02  1.2365124203134299e-02  1.4573636956545956e-02  1.6636110891525637e-02  1.8528038768028506e-02  2.0225715398320694e-02  2.1706777585571074e-02  2.2950806736318444e-02  2.3939952532499715e-02  2.4659531625730941e-02  2.5098555252460773e-02  2.5250143992585242e-02  2.5111796211785119e-02  2.4685488255053897e-02  2.3977598095701765e-02  2.2998658581792845e-02  2.1762960271703886e-02  2.0288035780920245e-02  1.8594066431611142e-02  1.6703256966636590e-02  1.4639224709642643e-02  1.2426445806206780e-02  1.0089793490068623e-02  7.6541925057712883e-03  5.1444010196865638e-03  2.5849178634923926e-03  0.0000000000000000e+00  0.0000000000000000e+00  2.1779526290318686e-03  4.3367419918589958e-03  6.4557488887242139e-03  8.5141722270920053e-03  1.0491009958459823e-02  1.2365124203134294e-02  1.4115408228380862e-02  1.5721060804308167e-02  1.7161961020161088e-02  1.8419125058316665e-02  1.9475216663180084e-02  2.0315075956372351e-02  2.0926227490155044e-02  2.1299328364927594e-02  2.1428520889359915e-02  2.1311661302377702e-02  2.0950405843273592e-02  2.0350147019290336e-02  1.9519805170185894e-02  1.8471492188191718e-02  1.7220074388269370e-02  1.5782669066062269e-02  1.4178113514277741e-02  1.2426445806206799e-02  1.0548433482803737e-02  8.5651797645165360e-03  6.4978277816491832e-03  4.3673726217974265e-03  2.1945799772116600e-03  0.0000000000000000e+00  0.0000000000000000e+00  1.7672457594481124e-03  3.5191453557813939e-03  5.2389056492534031e-03  6.9096046491622558e-03  8.5141722270920019e-03  1.0035437934085730e-02  1.1456262289278455e-02  1.2759756352502757e-02  1.3929583791747720e-02  1.4950330204062268e-02  1.5807916587144272e-02  1.6490028165012036e-02  1.6986526751326062e-02  1.7289814789828318e-02  1.7395122172436432e-02  1.7300692640875890e-02  1.7007854495979594e-02  1.6520969718322093e-02  1.5847265546357604e-02  1.4996562107328614e-02  1.3980917932160027e-02  1.2814221316257438e-02  1.1511758927556950e