<?xml version="1.0"?>
<VTKFile type="UnstructuredGrid"  version="0.1"  >
<UnstructuredGrid>
<Piece  NumberOfPoints="961" NumberOfCells="1800">
<Points>
<DataArray  type="Float64"  NumberOfComponents="3"  format="ascii">-2 -2 0  -1.866666666666667 -2 0  -1.733333333333333 -2 0  -1.6 -2 0  -1.466666666666667 -2 0  -1.333333333333333 -2 0  -1.2 -2 0  -1.066666666666667 -2 0  -0.9333333333333333 -2 0  -0.8 -2 0  -0.6666666666666667 -2 0  -0.5333333333333334 -2 0  -0.3999999999999999 -2 0  -0.2666666666666666 -2 0  -0.1333333333333333 -2 0  0 -2 0  0.1333333333333333 -2 0  0.2666666666666666 -2 0  0.3999999999999999 -2 0  0.5333333333333332 -2 0  0.6666666666666665 -2 0  0.7999999999999998 -2 0  0.9333333333333331 -2 0  1.066666666666667 -2 0  1.2 -2 0  1.333333333333333 -2 0  1.466666666666667 -2 0  1.6 -2 0  1.733333333333333 -2 0  1.866666666666667 -2 0  2 -2 0  -2 -1.866666666666667 0  -1.866666666666667 -1.866666666666667 0  -1.733333333333333 -1.866666666666667 0  -1.6 -1.866666666666667 0  -1.466666666666667 -1.866666666666667 0  -1.333333333333333 -1.866666666666667 0  -1.2 -1.866666666666667 0  -1.066666666666667 -1.866666666666667 0  -0.9333333333333333 -1.866666666666667 0  -0.8 -1.866666666666667 0  -0.6666666666666667 -1.866666666666667 0  -0.5333333333333334 -1.866666666666667 0  -0.3999999999999999 -1.866666666666667 0  -0.2666666666666666 -1.866666666666667 0  -0.1333333333333333 -1.866666666666667 0  0 -1.866666666666667 0  0.1333333333333333 -1.866666666666667 0  0.2666666666666666 -1.866666666666667 0  0.3999999999999999 -1.866666666666667 0  0.5333333333333332 -1.866666666666667 0  0.6666666666666665 -1.866666666666667 0  0.7999999999999998 -1.866666666666667 0  0.9333333333333331 -1.866666666666667 0  1.066666666666667 -1.866666666666667 0  1.2 -1.866666666666667 0  1.333333333333333 -1.866666666666667 0  1.466666666666667 -1.866666666666667 0  1.6 -1.866666666666667 0  1.733333333333333 -1.866666666666667 0  1.866666666666667 -1.866666666666667 0  2 -1.866666666666667 0  -2 -1.733333333333333 0  -1.866666666666667 -1.733333333333333 0  -1.733333333333333 -1.733333333333333 0  -1.6 -1.733333333333333 0  -1.466666666666667 -1.733333333333333 0  -1.333333333333333 -1.733333333333333 0  -1.2 -1.733333333333333 0  -1.066666666666667 -1.733333333333333 0  -0.9333333333333333 -1.733333333333333 0  -0.8 -1.733333333333333 0  -0.6666666666666667 -1.733333333333333 0  -0.5333333333333334 -1.733333333333333 0  -0.3999999999999999 -1.733333333333333 0  -0.2666666666666666 -1.733333333333333 0  -0.1333333333333333 -1.733333333333333 0  0 -1.733333333333333 0  0.1333333333333333 -1.733333333333333 0  0.2666666666666666 -1.733333333333333 0  0.3999999999999999 -1.733333333333333 0  0.5333333333333332 -1.733333333333333 0  0.6666666666666665 -1.733333333333333 0  0.7999999999999998 -1.733333333333333 0  0.9333333333333331 -1.733333333333333 0  1.066666666666667 -1.733333333333333 0  1.2 -1.733333333333333 0  1.333333333333333 -1.733333333333333 0  1.466666666666667 -1.733333333333333 0  1.6 -1.733333333333333 0  1.733333333333333 -1.733333333333333 0  1.866666666666667 -1.733333333333333 0  2 -1.733333333333333 0  -2 -1.6 0  -1.866666666666667 -1.6 0  -1.733333333333333 -1.6 0  -1.6 -1.6 0  -1.466666666666667 -1.6 0  -1.333333333333333 -1.6 0  -1.2 -1.6 0  -1.066666666666667 -1.6 0  -0.9333333333333333 -1.6 0  -0.8 -1.6 0  -0.6666666666666667 -1.6 0  -0.5333333333333334 -1.6 0  -0.3999999999999999 -1.6 0  -0.2666666666666666 -1.6 0  -0.1333333333333333 -1.6 0  0 -1.6 0  0.1333333333333333 -1.6 0  0.2666666666666666 -1.6 0  0.3999999999999999 -1.6 0  0.5333333333333332 -1.6 0  0.6666666666666665 -1.6 0  0.7999999999999998 -1.6 0  0.9333333333333331 -1.6 0  1.066666666666667 -1.6 0  1.2 -1.6 0  1.333333333333333 -1.6 0  1.466666666666667 -1.6 0  1.6 -1.6 0  1.733333333333333 -1.6 0  1.866666666666667 -1.6 0  2 -1.6 0  -2 -1.466666666666667 0  -1.866666666666667 -1.466666666666667 0  -1.733333333333333 -1.466666666666667 0  -1.6 -1.466666666666667 0  -1.466666666666667 -1.466666666666667 0  -1.333333333333333 -1.466666666666667 0  -1.2 -1.466666666666667 0  -1.066666666666667 -1.466666666666667 0  -0.9333333333333333 -1.466666666666667 0  -0.8 -1.466666666666667 0  -0.6666666666666667 -1.466666666666667 0  -0.5333333333333334 -1.466666666666667 0  -0.3999999999999999 -1.466666666666667 0  -0.2666666666666666 -1.466666666666667 0  -0.1333333333333333 -1.466666666666667 0  0 -1.466666666666667 0  0.1333333333333333 -1.466666666666667 0  0.2666666666666666 -1.466666666666667 0  0.3999999999999999 -1.466666666666667 0  0.5333333333333332 -1.466666666666667 0  0.6666666666666665 -1.466666666666667 0  0.7999999999999998 -1.466666666666667 0  0.9333333333333331 -1.466666666666667 0  1.066666666666667 -1.466666666666667 0  1.2 -1.466666666666667 0  1.333333333333333 -1.466666666666667 0  1.466666666666667 -1.466666666666667 0  1.6 -1.466666666666667 0  1.733333333333333 -1.466666666666667 0  1.866666666666667 -1.466666666666667 0  2 -1.466666666666667 0  -2 -1.333333333333333 0  -1.866666666666667 -1.333333333333333 0  -1.733333333333333 -1.333333333333333 0  -1.6 -1.333333333333333 0  -1.466666666666667 -1.333333333333333 0  -1.333333333333333 -1.333333333333333 0  -1.2 -1.333333333333333 0  -1.066666666666667 -1.333333333333333 0  -0.9333333333333333 -1.333333333333333 0  -0.8 -1.333333333333333 0  -0.6666666666666667 -1.333333333333333 0  -0.5333333333333334 -1.333333333333333 0  -0.3999999999999999 -1.333333333333333 0  -0.2666666666666666 -1.333333333333333 0  -0.1333333333333333 -1.333333333333333 0  0 -1.333333333333333 0  0.1333333333333333 -1.333333333333333 0  0.2666666666666666 -1.333333333333333 0  0.3999999999999999 -1.333333333333333 0  0.5333333333333332 -1.333333333333333 0  0.6666666666666665 -1.333333333333333 0  0.7999999999999998 -1.333333333333333 0  0.9333333333333331 -1.333333333333333 0  1.066666666666667 -1.333333333333333 0  1.2 -1.333333333333333 0  1.333333333333333 -1.333333333333333 0  1.466666666666667 -1.333333333333333 0  1.6 -1.333333333333333 0  1.733333333333333 -1.333333333333333 0  1.866666666666667 -1.333333333333333 0  2 -1.333333333333333 0  -2 -1.2 0  -1.866666666666667 -1.2 0  -1.733333333333333 -1.2 0  -1.6 -1.2 0  -1.466666666666667 -1.2 0  -1.333333333333333 -1.2 0  -1.2 -1.2 0  -1.066666666666667 -1.2 0  -0.9333333333333333 -1.2 0  -0.8 -1.2 0  -0.6666666666666667 -1.2 0  -0.5333333333333334 -1.2 0  -0.3999999999999999 -1.2 0  -0.2666666666666666 -1.2 0  -0.1333333333333333 -1.2 0  0 -1.2 0  0.1333333333333333 -1.2 0  0.2666666666666666 -1.2 0  0.3999999999999999 -1.2 0  0.5333333333333332 -1.2 0  0.6666666666666665 -1.2 0  0.7999999999999998 -1.2 0  0.9333333333333331 -1.2 0  1.066666666666667 -1.2 0  1.2 -1.2 0  1.333333333333333 -1.2 0  1.466666666666667 -1.2 0  1.6 -1.2 0  1.733333333333333 -1.2 0  1.866666666666667 -1.2 0  2 -1.2 0  -2 -1.066666666666667 0  -1.866666666666667 -1.066666666666667 0  -1.733333333333333 -1.066666666666667 0  -1.6 -1.066666666666667 0  -1.466666666666667 -1.066666666666667 0  -1.333333333333333 -1.066666666666667 0  -1.2 -1.066666666666667 0  -1.066666666666667 -1.066666666666667 0  -0.9333333333333333 -1.066666666666667 0  -0.8 -1.066666666666667 0  -0.6666666666666667 -1.066666666666667 0  -0.5333333333333334 -1.066666666666667 0  -0.3999999999999999 -1.066666666666667 0  -0.2666666666666666 -1.066666666666667 0  -0.1333333333333333 -1.066666666666667 0  0 -1.066666666666667 0  0.1333333333333333 -1.066666666666667 0  0.2666666666666666 -1.066666666666667 0  0.3999999999999999 -1.066666666666667 0  0.5333333333333332 -1.066666666666667 0  0.6666666666666665 -1.066666666666667 0  0.7999999999999998 -1.066666666666667 0  0.9333333333333331 -1.066666666666667 0  1.066666666666667 -1.066666666666667 0  1.2 -1.066666666666667 0  1.333333333333333 -1.066666666666667 0  1.466666666666667 -1.066666666666667 0  1.6 -1.066666666666667 0  1.733333333333333 -1.066666666666667 0  1.866666666666667 -1.066666666666667 0  2 -1.066666666666667 0  -2 -0.9333333333333333 0  -1.866666666666667 -0.9333333333333333 0  -1.733333333333333 -0.9333333333333333 0  -1.6 -0.9333333333333333 0  -1.466666666666667 -0.9333333333333333 0  -1.333333333333333 -0.9333333333333333 0  -1.2 -0.9333333333333333 0  -1.066666666666667 -0.9333333333333333 0  -0.9333333333333333 -0.9333333333333333 0  -0.8 -0.9333333333333333 0  -0.6666666666666667 -0.9333333333333333 0  -0.5333333333333334 -0.9333333333333333 0  -0.3999999999999999 -0.9333333333333333 0  -0.2666666666666666 -0.9333333333333333 0  -0.1333333333333333 -0.9333333333333333 0  0 -0.9333333333333333 0  0.1333333333333333 -0.9333333333333333 0  0.2666666666666666 -0.9333333333333333 0  0.3999999999999999 -0.9333333333333333 0  0.5333333333333332 -0.9333333333333333 0  0.6666666666666665 -0.9333333333333333 0  0.7999999999999998 -0.9333333333333333 0  0.9333333333333331 -0.9333333333333333 0  1.066666666666667 -0.9333333333333333 0  1.2 -0.9333333333333333 0  1.333333333333333 -0.9333333333333333 0  1.466666666666667 -0.9333333333333333 0  1.6 -0.9333333333333333 0  1.733333333333333 -0.9333333333333333 0  1.866666666666667 -0.9333333333333333 0  2 -0.9333333333333333 0  -2 -0.8 0  -1.866666666666667 -0.8 0  -1.733333333333333 -0.8 0  -1.6 -0.8 0  -1.466666666666667 -0.8 0  -1.333333333333333 -0.8 0  -1.2 -0.8 0  -1.066666666666667 -0.8 0  -0.9333333333333333 -0.8 0  -0.8 -0.8 0  -0.6666666666666667 -0.8 0  -0.5333333333333334 -0.8 0  -0.3999999999999999 -0.8 0  -0.2666666666666666 -0.8 0  -0.1333333333333333 -0.8 0  0 -0.8 0  0.1333333333333333 -0.8 0  0.2666666666666666 -0.8 0  0.3999999999999999 -0.8 0  0.5333333333333332 -0.8 0  0.6666666666666665 -0.8 0  0.7999999999999998 -0.8 0  0.9333333333333331 -0.8 0  1.066666666666667 -0.8 0  1.2 -0.8 0  1.333333333333333 -0.8 0  1.466666666666667 -0.8 0  1.6 -0.8 0  1.733333333333333 -0.8 0  1.866666666666667 -0.8 0  2 -0.8 0  -2 -0.6666666666666667 0  -1.866666666666667 -0.
[...]
<PointData  Scalars="f_12"> 
<DataArray  type="Float64"  Name="f_12"  format="ascii">0.0000000000000000e+00  0.0000000000000000e+00  0.0000000000000000e+00  0.0000000000000000e+00  0.0000000000000000e+00  0.0000000000000000e+00  0.0000000000000000e+00  0.0000000000000000e+00  0.0000000000000000e+00  0.0000000000000000e+00  0.0000000000000000e+00  0.0000000000000000e+00  0.0000000000000000e+00  0.0000000000000000e+00  0.0000000000000000e+00  0.0000000000000000e+00  0.0000000000000000e+00  0.0000000000000000e+00  0.0000000000000000e+00  0.0000000000000000e+00  0.0000000000000000e+00  0.0000000000000000e+00  0.0000000000000000e+00  0.0000000000000000e+00  0.0000000000000000e+00  0.0000000000000000e+00  0.0000000000000000e+00  0.0000000000000000e+00  0.0000000000000000e+00  0.0000000000000000e+00  0.0000000000000000e+00  0.0000000000000000e+00  2.8528500425645194e-04  5.6699832778405552e-04  8.4231065178694297e-04  1.1083442830915554e-03  1.3622644229780666e-03  1.6013306734327679e-03  1.8229357844684187e-03  2.0246397850517232e-03  2.2042019464599120e-03  2.3596110703141939e-03  2.4891138170425710e-03  2.5912404512684934e-03  2.6648272465593726e-03  2.7090347833096575e-03  2.7233614567424781e-03  2.7076516662921193e-03  2.6620983640414592e-03  2.5872398783356471e-03  2.4839511779450097e-03  2.3534299812042348e-03  2.1971783246529193e-03  2.0169803727936868e-03  1.8148773685375185e-03  1.5931406998480517e-03  1.3542441243544648e-03  1.1008363407874330e-03  8.3571557567549491e-04  5.6180942852099931e-04  2.8216843873207634e-04  0.0000000000000000e+00  0.0000000000000000e+00  5.6699832778405596e-04  1.1272087046907239e-03  1.6748023714058238e-03  2.2039913882943621e-03  2.7091137610958538e-03  3.1847086517508899e-03  3.6255849680176242e-03  4.0268863088569612e-03  4.3841534005756300e-03  4.6933838535906857e-03  4.9510882872259628e-03  5.1543414390237546e-03  5.3008266930917054e-03  5.3888724763908906e-03  5.4174791498239902e-03  5.3863353328918520e-03  5.2958230132894154e-03  5.1470112678571071e-03  4.9416389171748612e-03  4.6820869110023389e-03  4.3713416577955680e-03  4.0129508389963407e-03  3.6109734711370078e-03  3.1699260985816207e-03  2.6947270477845476e-03  2.1906407258778841e-03  1.6632241499160787e-03  1.1182784829077122e-03  5.6180942852099942e-04  0.0000000000000000e+00  0.0000000000000000e+00  8.4231065178694330e-04  1.6748023714058238e-03  2.4886817777268117e-03  3.2752832443399774e-03  4.0261603435905891e-03  4.7331802787918690e-03  5.3886179697698357e-03  5.9852490233663243e-03  6.5164408687514441e-03  6.9762407648189658e-03  7.3594588153572905e-03  7.6617437363981997e-03  7.8796489557037067e-03  8.0106866918071718e-03  8.0533679449555206e-03  8.0072268050560159e-03  7.8728280990499975e-03  7.6517581078265669e-03  7.3465988200021141e-03  6.9608868945169790e-03  6.4990591186418834e-03  5.9663866258924877e-03  5.3689004488105974e-03  4.7133111142376068e-03  4.0069249557199791e-03  3.2575596496355911e-03  2.4734612026161983e-03  1.6632241499160796e-03  8.3571557567549567e-04  0.0000000000000000e+00  0.0000000000000000e+00  1.1083442830915554e-03  2.2039913882943617e-03  3.2752832443399761e-03  4.3107613889473307e-03  5.2992765751601638e-03  6.2301044145812324e-03  7.0930638733796170e-03  7.8786366160316871e-03  8.5780852893190835e-03  9.1835684427317380e-03  9.6882492969303131e-03  1.0086395212066323e-02  1.0373464573519545e-02  1.0546177943354895e-02  1.0602570721850569e-02  1.0542025196073073e-02  1.0365280669978594e-02  1.0074421304138773e-02  9.6728422638596191e-03  9.1651957004210954e-03  8.5573188948049779e-03  7.8561475125099173e-03  7.0696173062575092e-03  6.2065577368210388e-03  5.2765808578492633e-03  4.2899684364445445e-03  3.2575596496355933e-03  2.1906407258778858e-03  1.1008363407874341e-03  0.0000000000000000e+00  0.0000000000000000e+00  1.3622644229780668e-03  2.7091137610958538e-03  4.0261603435905874e-03  5.2992765751601655e-03  6.5147272827934923e-03  7.6593081983081495e-03  8.7204885609687820e-03  9.6865556963011638e-03  1.0546759054669541e-02  1.1291450643089070e-02  1.1912218240413917e-02  1.2402007404121727e-02  1.2755228155677617e-02  1.2967842419350607e-02  1.3037428791810142e-02  1.2963222006014224e-02  1.2746125462274421e-02  1.2388696349138337e-02  1.1895104070436022e-02  1.1271063831952135e-02  1.0523748226730958e-02  9.6616804114553288e-03  8.6946129285846753e-03  7.6333963663421604e-03  6.4898418524980865e-03  5.2765808578492668e-03  4.0069249557199843e-03  2.6947270477845507e-03  1.3542441243544656e-03  0.0000000000000000e+00  0.0000000000000000e+00  1.6013306734327694e-03  3.1847086517508925e-03  4.7331802787918707e-03  6.2301044145812333e-03  7.6593081983081452e-03  9.0052485684454144e-03  1.0253178357198970e-02  1.1389314933303932e-02  1.2401008552635382e-02  1.3276906782162519e-02  1.4007110686891143e-02  1.4583318023523089e-02  1.4998948554637393e-02  1.5249246829590189e-02  1.5331358377054773e-02  1.5244376183321633e-02  1.4989355519934447e-02  1.4569296537388593e-02  1.3989095445487801e-02  1.3255466437310362e-02  1.2376837670452714e-02  1.1363225500771736e-02  1.0226091699774793e-02  8.9781885371141134e-03  7.6333963663421630e-03  6.2065577368210422e-03  4.7133111142376085e-03  3.1699260985816216e-03  1.5931406998480528e-03  0.0000000000000000e+00  0.0000000000000000e+00  1.8229357844684213e-03  3.6255849680176320e-03  5.3886179697698417e-03  7.0930638733796222e-03  8.7204885609687820e-03  1.0253178357198975e-02  1.1674328443694237e-02  1.2968234109501967e-02  1.4120481774983804e-02  1.5118135705347195e-02  1.5949915505798114e-02  1.6606358962024836e-02  1.7079964636417425e-02  1.7365308895054905e-02  1.7459132723464173e-02  1.7360394748257978e-02  1.7070288236829493e-02  1.6592221388495424e-02  1.5931761829316885e-02  1.5096547744639156e-02  1.4096169400336978e-02  1.2942025806885119e-02  1.1647161889629217e-02  1.0226091699774807e-02  8.6946129285846840e-03  7.0696173062575118e-03  5.3689004488105940e-03  3.6109734711370052e-03  1.8148773685375190e-03  0.0000000000000000e+00  0.0000000000000000e+00  2.0246397850517271e-03  4.0268863088569690e-03  5.9852490233663373e-03  7.8786366160317010e-03  9.6865556963011742e-03  1.1389314933303951e-02  1.2968234109501979e-02  1.4405856174644762e-02  1.5686159042950884e-02  1.6794762670799282e-02  1.7719125991523262e-02  1.8448727672135064e-02  1.8975224473727202e-02  1.9292581284832661e-02  1.9397167652342926e-02  1.9287816809218188e-02  1.8965844702517075e-02  1.8435028237043211e-02  1.7701543726346004e-02  1.6773868234310946e-02  1.5662647955099630e-02  1.4380538895845386e-02  1.2942025806885117e-02  1.1363225500771738e-02  9.6616804114553288e-03  7.8561475125099155e-03  5.9663866258924817e-03  4.0129508389963407e-03  2.0169803727936881e-03  0.0000000000000000e+00  0.0000000000000000e+00  2.2042019464599176e-03  4.3841534005756404e-03  6.5164408687514597e-03  8.5780852893191113e-03  1.0546759054669569e-02  1.2401008552635408e-02  1.4120481774983816e-02  1.5686159042950884e-02  1.7080583407739297e-02  1.8288085933716683e-02  1.9294999995418356e-02  2.0089858031887214e-02  2.0663563988461149e-02  2.1009534980118549e-02  2.1123806527013633e-02  2.1005096988039446e-02  2.0654828453988350e-02  2.0077103224879416e-02  1.9278636930704054e-02  1.8268651198260648e-02  1.7058730364271451e-02  1.5662647955099647e-02  1.4096169400336995e-02  1.2376837670452728e-02  1.0523748226730972e-02  8.5573188948049848e-03  6.4990591186418929e-03  4.3713416577955758e-03  2.1971783246529232e-03  0.0000000000000000e+00  0.0000000000000000e+00  2.3596110703141995e-03  4.6933838535906979e-03  6.9762407648189875e-03  9.1835684427317658e-03  1.1291450643089109e-02  1.3276906782162555e-02  1.5118135705347214e-02  1.6794762670799292e-02  1.8288085933716697e-02  1.9581317853824703e-02  2.0659814277113813e-02  2.1511285190532206e-02  2.2125979407145120e-02  2.2496836355219971e-02  2.2619598911941617e-02  2.2492882582914642e-02  2.2118198076913162e-02  2.1499926318697935e-02  2.0645247014496118e-02  1.9564023860435261e-02  1.8268651198260669e-02  1.6773868234310988e-02  1.5096547744639189e-02  1.3255466437310395e-02  1.1271063831952165e-02  9.1651957004211179e-03  6.9608868945169964e-03  4.6820869110023510e-03  2.3534299812042409e-03  0.0000000000000000e+00  0.0000000000000000e+00  2.4891138170425758e-03  4.9510882872259724e-03  7.3594588153573053e-03  9.6882492969303374e-03  1.1912218240413944e-02  1.4007110686891191e-02  1.5949915505798131e-02  1.7719125991523258e-02  1.9294999995418369e-02  2.0659814277113817e-02  2.1798106512009453e-02  2.2696897586434596e-02  2.3345886546900240e-02  2.3737610894232004e-02  2.3867565821189755e-02  2.3734277422201938e-02  2.3339326744938087e-02  2.2687323654976527e-02  2.1785831670986449e-02  2.0645247014496142e-02  1.9278636930704106e-02  1.7701543726346088e-02  1.5931761829316930e-02  1.3989095445487848e-02  1.1895104070436067e-02  9.6728422638596503e-03  7.3465988200021376e-03  4.9416389171748811e-03  2.4839511779450193e-03  0.0000000000000000e+00  0.0000000000000000e+00  2.5912404512684955e-03  5.1543414390237581e-03  7.6617437363982119e-03  1.0086395212066340e-02  1.2402007404121758e-02  1.4583318023523121e-02  1.6606358962024857e-02  1.8448727672135085e-02  2.0089858031887248e-02  2.1511285190532223e-02  2.2696897586434599e-02  2.3633168481543364e-02  2.4309359072100838e-02  2.4717685564862615e-02  2.4853443546372152e-02  2.4715084456359549e-02  2.4304240889652235e-02  2.3625699637403859e-02  2.2687323654976534e-02  2.1499926318697956e-02  2.0077103224879461e-02  1.8435028237043270e-02  1.6592221388495466e-02  1.4569296537388631e-02  1.2388696349138381e-02  1.0074421304138808e-02  7.6517581078265930e-03  5.1470112678571279e-03  2.5872398783356588e-03  0.0000000000000000e+00  0.0000000000000000e+00  2.6648272465593726e-03  5.3008266930917080e-03  7.8796489557037067e-03  1.0373464573519557e-02  1.2755228155677631e-02  1.4998948554637410e-02  1.7079964636417439e-02  1.8975224473727230e-02  2.0663563988461184e-02  2.2125979407145155e-02  2.3345886546900237e-02  2.4309359072100804e-02  2.5005337561749965e-02  2.5425801559285765e-02  2.5565897734998701e-02  2.5424018811817297e-02  2.5001829869531627e-02  2.4304240889652245e-02  2.3339326744938101e-02  2.2118198076913179e-02  2.0654828453988385e-02  1.8965844702517123e-02  1.7070288236829528e-02  1.4989355519934480e-02  1.2746125462274462e-02  1.0365280669978629e-02  7.8728280990500270e-03  5.2958230132894354e-03  2.6620983640414709e-03  0.0000000000000000e+00  0.0000000000000000e+00  2.7090347833096623e-03  5.3888724763908984e-03  8.0106866918071735e-03  1.0546177943354901e-02  1.2967842419350607e-02  1.5249246829590200e-02  1.7365308895054901e-02  1.9292581284832681e-02  2.1009534980118590e-02  2.2496836355219998e-02  2.3737610894232011e-02  2.4717685564862601e-02  2.5425801559285765e-02  2.5853789442379253e-02  2.5996699715921782e-02  2.5852883348169702e-02  2.5424018811817290e-02  2.4715084456359546e-02  2.3734277422201962e-02  2.2492882582914667e-02  2.1005096988039498e-02  1.9287816809218247e-02  1.7360394748258023e-02  1.5244376183321673e-02  1.2963222006014265e-02  1.0542025196073114e-02  8.0072268050560540e-03  5.3863353328918737e-03  2.7076516662921323e-03  0.0000000000000000e+00  0.0000000000000000e+00  2.7233614567424825e-03  5.4174791498239980e-03  8.0533679449555258e-03  1.0602570721850580e-02  1.3037428791810147e-02  1.5331358377054786e-02  1.7459132723464187e-02  1.9397167652342933e-02  2.1123806527013667e-02  2.2619598911941641e-02  2.3867565821189787e-02  2.4853443546372159e-02  2.5565897734998722e-02  2.5996699715921799e-02  2.6140858035963263e-02  2.5996699715921785e-02  2.5565897734998691e-02  2.4853443546372124e-02  2.3867565821189755e-02  2.2619598911941634e-02  2.1123806527013692e-02  1.9397167652342978e-02  1.7459132723464228e-02  1.5331358377054823e-02  1.3037428791810185e-02  1.0602570721850614e-02  8.0533679449555483e-03  5.4174791498240102e-03  2.7233614567424903e-03  0.0000000000000000e+00  0.0000000000000000e+00  2.7076516662921249e-03  5.3863353328918624e-03  8.0072268050560315e-03  1.0542025196073090e-02  1.2963222006014246e-02  1.5244376183321650e-02  1.7360394748257988e-02  1.9287816809218209e-02  2.1005096988039491e-02  2.2492882582914674e-02  2.3734277422201994e-02  2.4715084456359584e-02  2.5424018811817339e-02  2.5852883348169740e-02  2.5996699715921789e-02  2.5853789442379264e-02  2.5425801559285775e-02  2.4717685564862583e-02  2.3737610894231986e-02  2.2496836355219998e-02  2.1009534980118590e-02  1.9292581284832720e-02  1.7365308895054946e-02  1.5249246829590233e-02  1.2967842419350645e-02  1.0546177943354929e-02  8.0106866918071996e-03  5.3888724763909088e-03  2.7090347833096697e-03  0.0000000000000000e+00  0.0000000000000000e+00  2.6620983640414653e-03  5.2958230132894276e-03  7.8728280990500148e-03  1.0365280669978617e-02  1.2746125462274441e-02  1.4989355519934473e-02  1.7070288236829503e-02  1.8965844702517099e-02  2.0654828453988364e-02  2.2118198076913183e-02  2.3339326744938139e-02  2.4304240889652280e-02  2.5001829869531679e-02  2.5424018811817349e-02  2.5565897734998719e-02  2.5425801559285761e-02  2.5005337561749968e-02  2.4309359072100818e-02  2.3345886546900240e-02  2.2125979407145151e-02  2.0663563988461187e-02  1.8975224473727265e-02  1.7079964636417470e-02  1.4998948554637431e-02  1.2755228155677652e-02  1.0373464573519568e-02  7.8796489557037188e-03  5.3008266930917184e-03  2.6648272465593812e-03  0.0000000000000000e+00  0.0000000000000000e+00  2.5872398783356536e-03  5.1470112678571175e-03  7.6517581078265782e-03  1.0074421304138796e-02  1.2388696349138365e-02  1.4569296537388619e-02  1.6592221388495441e-02  1.8435028237043238e-02  2.0077103224879447e-02  2.1499926318697956e-02  2.2687323654976554e-02  2.3625699637403890e-02  2.4304240889652277e-02  2.4715084456359580e-02  2.4853443546372155e-02  2.4717685564862608e-02  2.4309359072100842e-02  2.3633168481543381e-02  2.2696897586434606e-02  2.1511285190532234e-02  2.0089858031887252e-02  1.8448727672135106e-02  1.6606358962024878e-02  1.4583318023523129e-02  1.2402007404121758e-02  1.0086395212066345e-02  7.6617437363982197e-03  5.1543414390237676e-03  2.5912404512685012e-03  0.0000000000000000e+00  0.0000000000000000e+00  2.4839511779450158e-03  4.9416389171748750e-03  7.3465988200021289e-03  9.6728422638596417e-03  1.1895104070436046e-02  1.3989095445487827e-02  1.5931761829316913e-02  1.7701543726346042e-02  1.9278636930704099e-02  2.0645247014496142e-02  2.1785831670986480e-02  2.2687323654976558e-02  2.3339326744938126e-02  2.3734277422201987e-02  2.3867565821189783e-02  2.3737610894232024e-02  2.3345886546900244e-02  2.2696897586434599e-02  2.1798106512009474e-02  2.0659814277113848e-02  1.9294999995418397e-02  1.7719125991523286e-02  1.5949915505798128e-02  1.4007110686891191e-02  1.1912218240413948e-02  9.6882492969303392e-03  7.3594588153573044e-03  4.9510882872259758e-03  2.4891138170425788e-03  0.0000000000000000e+00  0.0000000000000000e+00  2.3534299812042418e-03  4.6820869110023545e-03  6.9608868945170016e-03  9.1651957004211231e-03  1.1271063831952168e-02  1.3255466437310395e-02  1.5096547744639175e-02  1.6773868234310974e-02  1.8268651198260679e-02  1.9564023860435289e-02  2.0645247014496167e-02  2.1499926318697980e-02  2.2118198076913176e-02  2.2492882582914674e-02  2.2619598911941652e-02  2.2496836355220002e-02  2.2125979407145141e-02  2.1511285190532234e-02  2.0659814277113851e-02  1.9581317853824762e-02  1.8288085933716745e-02  1.6794762670799327e-02  1.5118135705347237e-02  1.3276906782162565e-02  1.1291450643089122e-02  9.1835684427317762e-03  6.9762407648189875e-03  4.6933838535907031e-03  2.3596110703142056e-03  0.0000000000000000e+00  0.0000000000000000e+00  2.1971783246529275e-03  4.3713416577955853e-03  6.4990591186419094e-03  8.5573188948050039e-03  1.0523748226730986e-02  1.2376837670452745e-02  1.4096169400337000e-02  1.5662647955099657e-02  1.7058730364271472e-02  1.8268651198260686e-02  1.9278636930704120e-02  2.0077103224879479e-02  2.0654828453988396e-02  2.1005096988039495e-02  2.1123806527013692e-02  2.1009534980118590e-02  2.0663563988461180e-02  2.0089858031887287e-02  1.9294999995418435e-02  1.8288085933716773e-02  1.7080583407739377e-02  1.5686159042950953e-02  1.4120481774983871e-02  1.2401008552635427e-02  1.0546759054669593e-02  8.5780852893191303e-03  6.5164408687514719e-03  4.3841534005756490e-03  2.2042019464599228e-03  0.0000000000000000e+00  0.0000000000000000e+00  2.0169803727936946e-03  4.0129508389963554e-03  5.9663866258925112e-03  7.8561475125099433e-03  9.6616804114553600e-03  1.1363225500771769e-02  1.2942025806885143e-02  1.4380538895845403e-02  1.5662647955099661e-02  1.6773868234310995e-02  1.7701543726346074e-02  1.8435028237043273e-02  1.8965844702517134e-02  1.9287816809218251e-02  1.9397167652342982e-02  1.9292581284832716e-02  1.8975224473727254e-02  1.8448727672135123e-02  1.7719125991523324e-02  1.6794762670799372e-02  1.5686159042950985e-02  1.4405856174644847e-02  1.2968234109502050e-02  1.1389314933303992e-02  9.6865556963012123e-03  7.8786366160317287e-03  5.9852490233663564e-03  4.0268863088569820e-03  2.0246397850517345e-03  0.0000000000000000e+00  0.0000000000000000e+00  1.8148773685375250e-03  3.6109734711370195e-03  5.3689004488106148e-03  7.0696173062575361e-03  8.6946129285847031e-03  1.0226091699774828e-02  1.1647161889629238e-02  1.2942025806885129e-02  1.4096169400336995e-02  1.5096547744639185e-02  1.5931761829316934e-02  1.6592221388495462e-02  1.7070288236829535e-02  1.7360394748258019e-02  1.7459132723464221e-02  1.7365308895054929e-02  1.7079964636417467e-02  1.6606358962024888e-02  1.5949915505798169e-02  1.5118135705347268e-02  1.4120481774983876e-02  1.2968234109502054e-02  1.1674328443694305e-02  1.0253178357199029e-02  8.7204885609688237e-03  7.0930638733796517e-03  5.3886179697698600e-03  3.6255849680176433e-03  1.8229357844684270e-03  0.0000000000000000e+00  0.0000000000000000e+00  1.5931406998480572e-03  3.1699260985816311e-03  4.7133111142376267e-03  6.2065577368210596e-03  7.6333963663421820e-03  8.9781885371141394e-03  1.0226091699774816e-02  1.1363225500771745e-02  1.2376837670452733e-02  1.3255466437310390e-02  1.3989095445487838e-02  1.4569296537388629e-02  1.4989355519934487e-02  1.5244376183321669e-02  1.5331358377054814e-02  1.5249246829590233e-02  1.4998948554637440e-02  1.4583318023523150e-02  1.4007110686891226e-02  1.3276906782162600e-02  1.2401008552635463e-02  1.1389314933304013e-02  1.0253178357199039e-02  9.0052485684454543e-03  7.6593081983081755e-03  6.2301044145812549e-03  4.7331802787918872e-03  3.1847086517509024e-03  1.6013306734327739e-03  0.0000000000000000e+00  0.0000000000000000e+00  1.3542441243544689e-03  2.6947270477845576e-03  4.0069249557199947e-03  5.2765808578492798e-03  6.4898418524980987e-03  7.6333963663421794e-03  8.6946129285846892e-03  9.6616804114553305e-03  1.0523748226730972e-02  1.1271063831952163e-02  1.1895104070436044e-02  1.2388696349138369e-02  1.2746125462274459e-02  1.2963222006014260e-02  1.3037428791810173e-02  1.2967842419350659e-02  1.2755228155677667e-02  1.2402007404121789e-02  1.1912218240413984e-02  1.1291450643089158e-02  1.0546759054669624e-02  9.6865556963012401e-03  8.7204885609688410e-03  7.6593081983081833e-03  6.5147272827935166e-03  5.2992765751601820e-03  4.0261603435906039e-03  2.7091137610958630e-03  1.3622644229780714e-03  0.0000000000000000e+00  0.0000000000000000e+00  1.1008363407874365e-03  2.1906407258778906e-03  3.2575596496356007e-03  4.2899684364445566e-03  5.2765808578492789e-03  6.2065577368210553e-03  7.0696173062575196e-03  7.8561475125099225e-03  8.5573188948049900e-03  9.1651957004211144e-03  9.6728422638596451e-03  1.0074421304138804e-02  1.0365280669978627e-02  1.0542025196073104e-02  1.0602570721850601e-02  1.0546177943354931e-02  1.0373464573519588e-02  1.0086395212066368e-02  9.6882492969303634e-03  9.1835684427317987e-03  8.5780852893191529e-03  7.8786366160317478e-03  7.0930638733796647e