<?xml version="1.0"?>
<VTKFile type="UnstructuredGrid"  version="0.1"  >
<UnstructuredGrid>
<Piece  NumberOfPoints="961" NumberOfCells="1800">
<Points>
<DataArray  type="Float64"  NumberOfComponents="3"  format="ascii">-2 -2 0  -1.866666666666667 -2 0  -1.733333333333333 -2 0  -1.6 -2 0  -1.466666666666667 -2 0  -1.333333333333333 -2 0  -1.2 -2 0  -1.066666666666667 -2 0  -0.9333333333333333 -2 0  -0.8 -2 0  -0.6666666666666667 -2 0  -0.5333333333333334 -2 0  -0.3999999999999999 -2 0  -0.2666666666666666 -2 0  -0.1333333333333333 -2 0  0 -2 0  0.1333333333333333 -2 0  0.2666666666666666 -2 0  0.3999999999999999 -2 0  0.5333333333333332 -2 0  0.6666666666666665 -2 0  0.7999999999999998 -2 0  0.9333333333333331 -2 0  1.066666666666667 -2 0  1.2 -2 0  1.333333333333333 -2 0  1.466666666666667 -2 0  1.6 -2 0  1.733333333333333 -2 0  1.866666666666667 -2 0  2 -2 0  -2 -1.866666666666667 0  -1.866666666666667 -1.866666666666667 0  -1.733333333333333 -1.866666666666667 0  -1.6 -1.866666666666667 0  -1.466666666666667 -1.866666666666667 0  -1.333333333333333 -1.866666666666667 0  -1.2 -1.866666666666667 0  -1.066666666666667 -1.866666666666667 0  -0.9333333333333333 -1.866666666666667 0  -0.8 -1.866666666666667 0  -0.6666666666666667 -1.866666666666667 0  -0.5333333333333334 -1.866666666666667 0  -0.3999999999999999 -1.866666666666667 0  -0.2666666666666666 -1.866666666666667 0  -0.1333333333333333 -1.866666666666667 0  0 -1.866666666666667 0  0.1333333333333333 -1.866666666666667 0  0.2666666666666666 -1.866666666666667 0  0.3999999999999999 -1.866666666666667 0  0.5333333333333332 -1.866666666666667 0  0.6666666666666665 -1.866666666666667 0  0.7999999999999998 -1.866666666666667 0  0.9333333333333331 -1.866666666666667 0  1.066666666666667 -1.866666666666667 0  1.2 -1.866666666666667 0  1.333333333333333 -1.866666666666667 0  1.466666666666667 -1.866666666666667 0  1.6 -1.866666666666667 0  1.733333333333333 -1.866666666666667 0  1.866666666666667 -1.866666666666667 0  2 -1.866666666666667 0  -2 -1.733333333333333 0  -1.866666666666667 -1.733333333333333 0  -1.733333333333333 -1.733333333333333 0  -1.6 -1.733333333333333 0  -1.466666666666667 -1.733333333333333 0  -1.333333333333333 -1.733333333333333 0  -1.2 -1.733333333333333 0  -1.066666666666667 -1.733333333333333 0  -0.9333333333333333 -1.733333333333333 0  -0.8 -1.733333333333333 0  -0.6666666666666667 -1.733333333333333 0  -0.5333333333333334 -1.733333333333333 0  -0.3999999999999999 -1.733333333333333 0  -0.2666666666666666 -1.733333333333333 0  -0.1333333333333333 -1.733333333333333 0  0 -1.733333333333333 0  0.1333333333333333 -1.733333333333333 0  0.2666666666666666 -1.733333333333333 0  0.3999999999999999 -1.733333333333333 0  0.5333333333333332 -1.733333333333333 0  0.6666666666666665 -1.733333333333333 0  0.7999999999999998 -1.733333333333333 0  0.9333333333333331 -1.733333333333333 0  1.066666666666667 -1.733333333333333 0  1.2 -1.733333333333333 0  1.333333333333333 -1.733333333333333 0  1.466666666666667 -1.733333333333333 0  1.6 -1.733333333333333 0  1.733333333333333 -1.733333333333333 0  1.866666666666667 -1.733333333333333 0  2 -1.733333333333333 0  -2 -1.6 0  -1.866666666666667 -1.6 0  -1.733333333333333 -1.6 0  -1.6 -1.6 0  -1.466666666666667 -1.6 0  -1.333333333333333 -1.6 0  -1.2 -1.6 0  -1.066666666666667 -1.6 0  -0.9333333333333333 -1.6 0  -0.8 -1.6 0  -0.6666666666666667 -1.6 0  -0.5333333333333334 -1.6 0  -0.3999999999999999 -1.6 0  -0.2666666666666666 -1.6 0  -0.1333333333333333 -1.6 0  0 -1.6 0  0.1333333333333333 -1.6 0  0.2666666666666666 -1.6 0  0.3999999999999999 -1.6 0  0.5333333333333332 -1.6 0  0.6666666666666665 -1.6 0  0.7999999999999998 -1.6 0  0.9333333333333331 -1.6 0  1.066666666666667 -1.6 0  1.2 -1.6 0  1.333333333333333 -1.6 0  1.466666666666667 -1.6 0  1.6 -1.6 0  1.733333333333333 -1.6 0  1.866666666666667 -1.6 0  2 -1.6 0  -2 -1.466666666666667 0  -1.866666666666667 -1.466666666666667 0  -1.733333333333333 -1.466666666666667 0  -1.6 -1.466666666666667 0  -1.466666666666667 -1.466666666666667 0  -1.333333333333333 -1.466666666666667 0  -1.2 -1.466666666666667 0  -1.066666666666667 -1.466666666666667 0  -0.9333333333333333 -1.466666666666667 0  -0.8 -1.466666666666667 0  -0.6666666666666667 -1.466666666666667 0  -0.5333333333333334 -1.466666666666667 0  -0.3999999999999999 -1.466666666666667 0  -0.2666666666666666 -1.466666666666667 0  -0.1333333333333333 -1.466666666666667 0  0 -1.466666666666667 0  0.1333333333333333 -1.466666666666667 0  0.2666666666666666 -1.466666666666667 0  0.3999999999999999 -1.466666666666667 0  0.5333333333333332 -1.466666666666667 0  0.6666666666666665 -1.466666666666667 0  0.7999999999999998 -1.466666666666667 0  0.9333333333333331 -1.466666666666667 0  1.066666666666667 -1.466666666666667 0  1.2 -1.466666666666667 0  1.333333333333333 -1.466666666666667 0  1.466666666666667 -1.466666666666667 0  1.6 -1.466666666666667 0  1.733333333333333 -1.466666666666667 0  1.866666666666667 -1.466666666666667 0  2 -1.466666666666667 0  -2 -1.333333333333333 0  -1.866666666666667 -1.333333333333333 0  -1.733333333333333 -1.333333333333333 0  -1.6 -1.333333333333333 0  -1.466666666666667 -1.333333333333333 0  -1.333333333333333 -1.333333333333333 0  -1.2 -1.333333333333333 0  -1.066666666666667 -1.333333333333333 0  -0.9333333333333333 -1.333333333333333 0  -0.8 -1.333333333333333 0  -0.6666666666666667 -1.333333333333333 0  -0.5333333333333334 -1.333333333333333 0  -0.3999999999999999 -1.333333333333333 0  -0.2666666666666666 -1.333333333333333 0  -0.1333333333333333 -1.333333333333333 0  0 -1.333333333333333 0  0.1333333333333333 -1.333333333333333 0  0.2666666666666666 -1.333333333333333 0  0.3999999999999999 -1.333333333333333 0  0.5333333333333332 -1.333333333333333 0  0.6666666666666665 -1.333333333333333 0  0.7999999999999998 -1.333333333333333 0  0.9333333333333331 -1.333333333333333 0  1.066666666666667 -1.333333333333333 0  1.2 -1.333333333333333 0  1.333333333333333 -1.333333333333333 0  1.466666666666667 -1.333333333333333 0  1.6 -1.333333333333333 0  1.733333333333333 -1.333333333333333 0  1.866666666666667 -1.333333333333333 0  2 -1.333333333333333 0  -2 -1.2 0  -1.866666666666667 -1.2 0  -1.733333333333333 -1.2 0  -1.6 -1.2 0  -1.466666666666667 -1.2 0  -1.333333333333333 -1.2 0  -1.2 -1.2 0  -1.066666666666667 -1.2 0  -0.9333333333333333 -1.2 0  -0.8 -1.2 0  -0.6666666666666667 -1.2 0  -0.5333333333333334 -1.2 0  -0.3999999999999999 -1.2 0  -0.2666666666666666 -1.2 0  -0.1333333333333333 -1.2 0  0 -1.2 0  0.1333333333333333 -1.2 0  0.2666666666666666 -1.2 0  0.3999999999999999 -1.2 0  0.5333333333333332 -1.2 0  0.6666666666666665 -1.2 0  0.7999999999999998 -1.2 0  0.9333333333333331 -1.2 0  1.066666666666667 -1.2 0  1.2 -1.2 0  1.333333333333333 -1.2 0  1.466666666666667 -1.2 0  1.6 -1.2 0  1.733333333333333 -1.2 0  1.866666666666667 -1.2 0  2 -1.2 0  -2 -1.066666666666667 0  -1.866666666666667 -1.066666666666667 0  -1.733333333333333 -1.066666666666667 0  -1.6 -1.066666666666667 0  -1.466666666666667 -1.066666666666667 0  -1.333333333333333 -1.066666666666667 0  -1.2 -1.066666666666667 0  -1.066666666666667 -1.066666666666667 0  -0.9333333333333333 -1.066666666666667 0  -0.8 -1.066666666666667 0  -0.6666666666666667 -1.066666666666667 0  -0.5333333333333334 -1.066666666666667 0  -0.3999999999999999 -1.066666666666667 0  -0.2666666666666666 -1.066666666666667 0  -0.1333333333333333 -1.066666666666667 0  0 -1.066666666666667 0  0.1333333333333333 -1.066666666666667 0  0.2666666666666666 -1.066666666666667 0  0.3999999999999999 -1.066666666666667 0  0.5333333333333332 -1.066666666666667 0  0.6666666666666665 -1.066666666666667 0  0.7999999999999998 -1.066666666666667 0  0.9333333333333331 -1.066666666666667 0  1.066666666666667 -1.066666666666667 0  1.2 -1.066666666666667 0  1.333333333333333 -1.066666666666667 0  1.466666666666667 -1.066666666666667 0  1.6 -1.066666666666667 0  1.733333333333333 -1.066666666666667 0  1.866666666666667 -1.066666666666667 0  2 -1.066666666666667 0  -2 -0.9333333333333333 0  -1.866666666666667 -0.9333333333333333 0  -1.733333333333333 -0.9333333333333333 0  -1.6 -0.9333333333333333 0  -1.466666666666667 -0.9333333333333333 0  -1.333333333333333 -0.9333333333333333 0  -1.2 -0.9333333333333333 0  -1.066666666666667 -0.9333333333333333 0  -0.9333333333333333 -0.9333333333333333 0  -0.8 -0.9333333333333333 0  -0.6666666666666667 -0.9333333333333333 0  -0.5333333333333334 -0.9333333333333333 0  -0.3999999999999999 -0.9333333333333333 0  -0.2666666666666666 -0.9333333333333333 0  -0.1333333333333333 -0.9333333333333333 0  0 -0.9333333333333333 0  0.1333333333333333 -0.9333333333333333 0  0.2666666666666666 -0.9333333333333333 0  0.3999999999999999 -0.9333333333333333 0  0.5333333333333332 -0.9333333333333333 0  0.6666666666666665 -0.9333333333333333 0  0.7999999999999998 -0.9333333333333333 0  0.9333333333333331 -0.9333333333333333 0  1.066666666666667 -0.9333333333333333 0  1.2 -0.9333333333333333 0  1.333333333333333 -0.9333333333333333 0  1.466666666666667 -0.9333333333333333 0  1.6 -0.9333333333333333 0  1.733333333333333 -0.9333333333333333 0  1.866666666666667 -0.9333333333333333 0  2 -0.9333333333333333 0  -2 -0.8 0  -1.866666666666667 -0.8 0  -1.733333333333333 -0.8 0  -1.6 -0.8 0  -1.466666666666667 -0.8 0  -1.333333333333333 -0.8 0  -1.2 -0.8 0  -1.066666666666667 -0.8 0  -0.9333333333333333 -0.8 0  -0.8 -0.8 0  -0.6666666666666667 -0.8 0  -0.5333333333333334 -0.8 0  -0.3999999999999999 -0.8 0  -0.2666666666666666 -0.8 0  -0.1333333333333333 -0.8 0  0 -0.8 0  0.1333333333333333 -0.8 0  0.2666666666666666 -0.8 0  0.3999999999999999 -0.8 0  0.5333333333333332 -0.8 0  0.6666666666666665 -0.8 0  0.7999999999999998 -0.8 0  0.9333333333333331 -0.8 0  1.066666666666667 -0.8 0  1.2 -0.8 0  1.333333333333333 -0.8 0  1.466666666666667 -0.8 0  1.6 -0.8 0  1.733333333333333 -0.8 0  1.866666666666667 -0.8 0  2 -0.8 0  -2 -0.6666666666666667 0  -1.866666666666667 -0.
[...]
<PointData  Scalars="f_12"> 
<DataArray  type="Float64"  Name="f_12"  format="ascii">0.0000000000000000e+00  0.0000000000000000e+00  0.0000000000000000e+00  0.0000000000000000e+00  0.0000000000000000e+00  0.0000000000000000e+00  0.0000000000000000e+00  0.0000000000000000e+00  0.0000000000000000e+00  0.0000000000000000e+00  0.0000000000000000e+00  0.0000000000000000e+00  0.0000000000000000e+00  0.0000000000000000e+00  0.0000000000000000e+00  0.0000000000000000e+00  0.0000000000000000e+00  0.0000000000000000e+00  0.0000000000000000e+00  0.0000000000000000e+00  0.0000000000000000e+00  0.0000000000000000e+00  0.0000000000000000e+00  0.0000000000000000e+00  0.0000000000000000e+00  0.0000000000000000e+00  0.0000000000000000e+00  0.0000000000000000e+00  0.0000000000000000e+00  0.0000000000000000e+00  0.0000000000000000e+00  0.0000000000000000e+00  4.1335990169951082e-04  8.4405541805111361e-04  1.3040826026217782e-03  1.8023853536802627e-03  2.3431068704863013e-03  2.9243823314706731e-03  3.5376847457240989e-03  4.1678135863544540e-03  4.7936010678722701e-03  5.3893469814411486e-03  5.9268995186791780e-03  6.3781960696621285e-03  6.7179871150140139e-03  6.9264101841232540e-03  6.9910759175539992e-03  6.9083807717483965e-03  6.6838644704245199e-03  6.3315669012279528e-03  5.8724831187719978e-03  5.3323392760288267e-03  4.7389944429724077e-03  4.1198011152099581e-03  3.4992306774395128e-03  2.8970002524462851e-03  2.3268427385502305e-03  1.7959629923021601e-03  1.3051370665081495e-03  8.4934626624482616e-04  4.1878544553264840e-04  0.0000000000000000e+00  0.0000000000000000e+00  8.4405541805111382e-04  1.7215860948296331e-03  2.6580802671883033e-03  3.6721129711718213e-03  4.7722798520880129e-03  5.9548825957885581e-03  7.2026416540242142e-03  8.4846850077084819e-03  9.7579849281562176e-03  1.0970272382636219e-02  1.2064265265629244e-02  1.2982835018782855e-02  1.3674550357252093e-02  1.4098921323626414e-02  1.4230655391143892e-02  1.4062342807960017e-02  1.3605198218039686e-02  1.2887763367148987e-02  1.1952769254134936e-02  1.0852609969250603e-02  9.6440491185707140e-03  8.3828378009596395e-03  7.1188700704157871e-03  5.8923601004702642e-03  4.7313326871510197e-03  3.6505178408347931e-03  2.6515676278645269e-03  1.7243919371691253e-03  8.4934626624482649e-04  0.0000000000000000e+00  0.0000000000000000e+00  1.3040826026217780e-03  2.6580802671883033e-03  4.1020287348250495e-03  5.6649610948248221e-03  7.3603591545528544e-03  9.1826778560140515e-03  1.1105401416840582e-02  1.3081039280060160e-02  1.5043340060981418e-02  1.6911776946287052e-02  1.8598057674955849e-02  2.0014084812750299e-02  2.1080504121882036e-02  2.1734798861505776e-02  2.1937867934501830e-02  2.1678186413574947e-02  2.0972969244948503e-02  1.9866187015865473e-02  1.8423736241541363e-02  1.6726459920124094e-02  1.4861976371742611e-02  1.2916365919185917e-02  1.0966684520022328e-02  9.0750553965252730e-03  7.2847925426535974e-03  5.6187000195495615e-03  4.0794259569700390e-03  2.6515676278645278e-03  1.3051370665081504e-03  0.0000000000000000e+00  0.0000000000000000e+00  1.8023853536802625e-03  3.6721129711718191e-03  5.6649610948248212e-03  7.8213677014480568e-03  1.0160204968462991e-02  1.2674027458213265e-02  1.5326413428131356e-02  1.8051965232656886e-02  2.0759358740351033e-02  2.3337522024796230e-02  2.5664608988647794e-02  2.7618980887048773e-02  2.9091009574041756e-02  2.9994265251742556e-02  3.0274620970686769e-02  2.9916025142833792e-02  2.8942136551498372e-02  2.7413607193882562e-02  2.5421425915029602e-02  2.3077281392788931e-02  2.0502268205886558e-02  1.7815388823233826e-02  1.5123194987655972e-02  1.2511611298941331e-02  1.0040572781755326e-02  7.7416789654388384e-03  5.6187000195495607e-03  3.6505178408347935e-03  1.7959629923021609e-03  0.0000000000000000e+00  0.0000000000000000e+00  2.3431068704863013e-03  4.7722798520880103e-03  7.3603591545528518e-03  1.0160204968462991e-02  1.3196619161368665e-02  1.6460187648730713e-02  1.9903832674760216e-02  2.3442806727246454e-02  2.6958637325293980e-02  3.0307132878028744e-02  3.3330022569315852e-02  3.5869214727103936e-02  3.7782137462042939e-02  3.8956295708681705e-02  3.9321135053537681e-02  3.8855583670181403e-02  3.7590217401606840e-02  3.5603760675502992e-02  3.3014453520377025e-02  2.9967527546468201e-02  2.6620512488630187e-02  2.3128266349105538e-02  1.9629482293539630e-02  1.6236035110565466e-02  1.3025994579649544e-02  1.0040572781755328e-02  7.2847925426536009e-03  4.7313326871510223e-03  2.3268427385502318e-03  0.0000000000000000e+00  0.0000000000000000e+00  2.9243823314706718e-03  5.9548825957885564e-03  9.1826778560140532e-03  1.2674027458213263e-02  1.6460187648730709e-02  2.0529725150406842e-02  2.4824204208829616e-02  2.9238156762841035e-02  3.3623973686277744e-02  3.7801861333285600e-02  4.1574339385469623e-02  4.4744021398090403e-02  4.7132767030074865e-02  4.8599878985626788e-02  4.9056957696102556e-02  4.8477372561128496e-02  4.6899021695579211e-02  4.4420010078304005e-02  4.1187899144930054e-02  3.7384075114383540e-02  3.3205386504416824e-02  2.8845420218169566e-02  2.4477614010297032e-02  2.0241916431711336e-02  1.6236035110565476e-02  1.2511611298941336e-02  9.0750553965252782e-03  5.8923601004702677e-03  2.8970002524462855e-03  0.0000000000000000e+00  0.0000000000000000e+00  3.5376847457240989e-03  7.2026416540242090e-03  1.1105401416840594e-02  1.5326413428131369e-02  1.9903832674760223e-02  2.4824204208829633e-02  3.0017217924237092e-02  3.5355632601599525e-02  4.0661144972905204e-02  4.5716386902673260e-02  5.0282427903044699e-02  5.4120271105412045e-02  5.7014038032286683e-02  5.8793028322388453e-02  5.9349760951282554e-02  5.8651515602160559e-02  5.6743751918128305e-02  5.3744943302054253e-02  4.9833603506363150e-02  4.5229372678493647e-02  4.0170766837886923e-02  3.4892466269418998e-02  2.9604814826762225e-02  2.4477614010297053e-02  1.9629482293539637e-02  1.5123194987655969e-02  1.0966684520022313e-02  7.1188700704157845e-03  3.4992306774395115e-03  0.0000000000000000e+00  0.0000000000000000e+00  4.1678135863544566e-03  8.4846850077084923e-03  1.3081039280060186e-02  1.8051965232656911e-02  2.3442806727246468e-02  2.9238156762841062e-02  3.5355632601599532e-02  4.1645727366556459e-02  4.7898658282798129e-02  5.3858438450972372e-02  5.9243452283626118e-02  6.3771766466689889e-02  6.7188469713772556e-02  6.9291727054837243e-02  6.9954131704377712e-02  6.9136415225983197e-02  6.6891584233476811e-02  6.3358917340928869e-02  5.8748723715258903e-02  5.3320055377243693e-02  4.7354443904848643e-02  4.1129060771287487e-02  3.4892466269418963e-02  2.8845420218169559e-02  2.3128266349105531e-02  1.7815388823233823e-02  1.2916365919185904e-02  8.3828378009596360e-03  4.1198011152099572e-03  0.0000000000000000e+00  0.0000000000000000e+00  4.7936010678722744e-03  9.7579849281562280e-03  1.5043340060981450e-02  2.0759358740351085e-02  2.6958637325294011e-02  3.3623973686277772e-02  4.0661144972905211e-02  4.7898658282798136e-02  5.5095541105454934e-02  6.1957446494988591e-02  6.8160261951489123e-02  7.3379204218788865e-02  7.7320297041612224e-02  7.9750420851686571e-02  8.0521994306909206e-02  7.9588887276639236e-02  7.7011317862165182e-02  7.2949056423812594e-02  6.7643953409843721e-02  6.1394302722611774e-02  5.4524574977356688e-02  4.7354443904848699e-02  4.0170766837886930e-02  3.3205386504416831e-02  2.6620512488630208e-02  2.0502268205886569e-02  1.4861976371742627e-02  9.6440491185707279e-03  4.7389944429724164e-03  0.0000000000000000e+00  0.0000000000000000e+00  5.3893469814411538e-03  1.0970272382636231e-02  1.6911776946287080e-02  2.3337522024796272e-02  3.0307132878028824e-02  3.7801861333285634e-02  4.5716386902673267e-02  5.3858438450972386e-02  6.1957446494988591e-02  6.9682552017961918e-02  7.6669080112911139e-02  8.2551228775370231e-02  8.6997496608015187e-02  8.9744566197521414e-02  9.0625201876742653e-02  8.9586315594381891e-02  8.6694643640502111e-02  8.2129241916179777e-02  7.6161918231557046e-02  6.9128412852109425e-02  6.1394302722611822e-02  5.3320055377243804e-02  4.5229372678493696e-02  3.7384075114383568e-02  2.9967527546468246e-02  2.3077281392788977e-02  1.6726459920124136e-02  1.0852609969250627e-02  5.3323392760288397e-03  0.0000000000000000e+00  0.0000000000000000e+00  5.9268995186791823e-03  1.2064265265629252e-02  1.8598057674955867e-02  2.5664608988647815e-02  3.3330022569315887e-02  4.1574339385469651e-02  5.0282427903044657e-02  5.9243452283626083e-02  6.8160261951489165e-02  7.6669080112911167e-02  8.4368533746593838e-02  9.0855572976130866e-02  9.5764471672856025e-02  9.8804201343197520e-02  9.9789281689537990e-02  9.8659851862914261e-02  9.5488115154362563e-02  9.0470249472356642e-02  8.3904984110011044e-02  7.6161918231557074e-02  6.7643953409843804e-02  5.8748723715259146e-02  4.9833603506363219e-02  4.1187899144930075e-02  3.3014453520377081e-02  2.5421425915029671e-02  1.8423736241541411e-02  1.1952769254134970e-02  5.8724831187720187e-03  0.0000000000000000e+00  0.0000000000000000e+00  6.3781960696621285e-03  1.2982835018782852e-02  2.0014084812750306e-02  2.7618980887048786e-02  3.5869214727103998e-02  4.4744021398090396e-02  5.4120271105412017e-02  6.3771766466689916e-02  7.3379204218788921e-02  8.2551228775370314e-02  9.0855572976130825e-02  9.7857672113082675e-02  1.0316267053866505e-01  1.0645575854873215e-01  1.0753555776275628e-01  1.0633594706340409e-01  1.0293322663267296e-01  9.7537602511930721e-02  9.0470249472356656e-02  8.2129241916179860e-02  7.2949056423812775e-02  6.3358917340929063e-02  5.3744943302054343e-02  4.4420010078304081e-02  3.5603760675503096e-02  2.7413607193882649e-02  1.9866187015865542e-02  1.2887763367149030e-02  6.3315669012279771e-03  0.0000000000000000e+00  0.0000000000000000e+00  6.7179871150140121e-03  1.3674550357252095e-02  2.1080504121882032e-02  2.9091009574041756e-02  3.7782137462042925e-02  4.7132767030074831e-02  5.7014038032286593e-02  6.7188469713772569e-02  7.7320297041612265e-02  8.6997496608015271e-02  9.5764471672856011e-02  1.0316267053866501e-01  1.0877486015466771e-01  1.1226772910081879e-01  1.1342724535953515e-01  1.1218188691590962e-01  1.0861043681173058e-01  1.0293322663267303e-01  9.5488115154362771e-02  8.6694643640502278e-02  7.7011317862165293e-02  6.6891584233476964e-02  5.6743751918128423e-02  4.6899021695579308e-02  3.7590217401606937e-02  2.8942136551498465e-02  2.0972969244948562e-02  1.3605198218039726e-02  6.6838644704245425e-03  0.0000000000000000e+00  0.0000000000000000e+00  6.9264101841232566e-03  1.4098921323626414e-02  2.1734798861505755e-02  2.9994265251742550e-02  3.8956295708681712e-02  4.8599878985626788e-02  5.8793028322388433e-02  6.9291727054837257e-02  7.9750420851686613e-02  8.9744566197521469e-02  9.8804201343197631e-02  1.0645575854873221e-01  1.1226772910081886e-01  1.1589469849425982e-01  1.1711399453948927e-01  1.1584988707702969e-01  1.1218188691590963e-01  1.0633594706340413e-01  9.8659851862914455e-02  8.9586315594382016e-02  7.9588887276639389e-02  6.9136415225983336e-02  5.8651515602160677e-02  4.8477372561128579e-02  3.8855583670181472e-02  2.9916025142833855e-02  2.1678186413574996e-02  1.4062342807960055e-02  6.9083807717484165e-03  0.0000000000000000e+00  0.0000000000000000e+00  6.9910759175540078e-03  1.4230655391143911e-02  2.1937867934501830e-02  3.0274620970686790e-02  3.9321135053537709e-02  4.9056957696102604e-02  5.9349760951282568e-02  6.9954131704377712e-02  8.0521994306909206e-02  9.0625201876742736e-02  9.9789281689538212e-02  1.0753555776275642e-01  1.1342724535953530e-01  1.1711399453948934e-01  1.1836906455494031e-01  1.1711399453948927e-01  1.1342724535953515e-01  1.0753555776275622e-01  9.9789281689538087e-02  9.0625201876742736e-02  8.0521994306909345e-02  6.9954131704377864e-02  5.9349760951282672e-02  4.9056957696102646e-02  3.9321135053537758e-02  3.0274620970686814e-02  2.1937867934501865e-02  1.4230655391143926e-02  6.9910759175540182e-03  0.0000000000000000e+00  0.0000000000000000e+00  6.9083807717484052e-03  1.4062342807960036e-02  2.1678186413574975e-02  2.9916025142833834e-02  3.8855583670181472e-02  4.8477372561128558e-02  5.8651515602160580e-02  6.9136415225983253e-02  7.9588887276639361e-02  8.9586315594382057e-02  9.8659851862914635e-02  1.0633594706340434e-01  1.1218188691590984e-01  1.1584988707702976e-01  1.1711399453948931e-01  1.1589469849425973e-01  1.1226772910081877e-01  1.0645575854873209e-01  9.8804201343197520e-02  8.9744566197521455e-02  7.9750420851686668e-02  6.9291727054837354e-02  5.8793028322388488e-02  4.8599878985626815e-02  3.8956295708681747e-02  2.9994265251742574e-02  2.1734798861505800e-02  1.4098921323626439e-02  6.9264101841232670e-03  0.0000000000000000e+00  0.0000000000000000e+00  6.6838644704245330e-03  1.3605198218039710e-02  2.0972969244948549e-02  2.8942136551498448e-02  3.7590217401606937e-02  4.6899021695579281e-02  5.6743751918128416e-02  6.6891584233476881e-02  7.7011317862165279e-02  8.6694643640502334e-02  9.5488115154362910e-02  1.0293322663267317e-01  1.0861043681173081e-01  1.1218188691590984e-01  1.1342724535953524e-01  1.1226772910081877e-01  1.0877486015466770e-01  1.0316267053866499e-01  9.5764471672855983e-02  8.6997496608015243e-02  7.7320297041612307e-02  6.7188469713772639e-02  5.7014038032286635e-02  4.7132767030074851e-02  3.7782137462042946e-02  2.9091009574041763e-02  2.1080504121882060e-02  1.3674550357252112e-02  6.7179871150140251e-03  0.0000000000000000e+00  0.0000000000000000e+00  6.3315669012279658e-03  1.2887763367149014e-02  1.9866187015865528e-02  2.7413607193882632e-02  3.5603760675503082e-02  4.4420010078304081e-02  5.3744943302054322e-02  6.3358917340928966e-02  7.2949056423812747e-02  8.2129241916179957e-02  9.0470249472356809e-02  9.7537602511930901e-02  1.0293322663267325e-01  1.0633594706340425e-01  1.0753555776275632e-01  1.0645575854873215e-01  1.0316267053866503e-01  9.7857672113082633e-02  9.0855572976130797e-02  8.2551228775370272e-02  7.3379204218788893e-02  6.3771766466689916e-02  5.4120271105411996e-02  4.4744021398090368e-02  3.5869214727103943e-02  2.7618980887048762e-02  2.0014084812750296e-02  1.2982835018782857e-02  6.3781960696621329e-03  0.0000000000000000e+00  0.0000000000000000e+00  5.8724831187720082e-03  1.1952769254134956e-02  1.8423736241541398e-02  2.5421425915029650e-02  3.3014453520377095e-02  4.1187899144930123e-02  4.9833603506363240e-02  5.8748723715259056e-02  6.7643953409843846e-02  7.6161918231557199e-02  8.3904984110011196e-02  9.0470249472356809e-02  9.5488115154362868e-02  9.8659851862914538e-02  9.9789281689538170e-02  9.8804201343197576e-02  9.5764471672855997e-02  9.0855572976130769e-02  8.4368533746593796e-02  7.6669080112911153e-02  6.8160261951489151e-02  5.9243452283626083e-02  5.0282427903044630e-02  4.1574339385469575e-02  3.3330022569315845e-02  2.5664608988647794e-02  1.8598057674955860e-02  1.2064265265629251e-02  5.9268995186791823e-03  0.0000000000000000e+00  0.0000000000000000e+00  5.3323392760288380e-03  1.0852609969250629e-02  1.6726459920124143e-02  2.3077281392788994e-02  2.9967527546468302e-02  3.7384075114383609e-02  4.5229372678493709e-02  5.3320055377243769e-02  6.1394302722611864e-02  6.9128412852109550e-02  7.6161918231557213e-02  8.2129241916179971e-02  8.6694643640502264e-02  8.9586315594382043e-02  9.0625201876742792e-02  8.9744566197521428e-02  8.6997496608015215e-02  8.2551228775370258e-02  7.6669080112911167e-02  6.9682552017961974e-02  6.1957446494988626e-02  5.3858438450972379e-02  4.5716386902673274e-02  3.7801861333285600e-02  3.0307132878028799e-02  2.3337522024796265e-02  1.6911776946287076e-02  1.0970272382636233e-02  5.3893469814411538e-03  0.0000000000000000e+00  0.0000000000000000e+00  4.7389944429724216e-03  9.6440491185707383e-03  1.4861976371742655e-02  2.0502268205886603e-02  2.6620512488630257e-02  3.3205386504416901e-02  4.0170766837886979e-02  4.7354443904848706e-02  5.4524574977356750e-02  6.1394302722611913e-02  6.7643953409843874e-02  7.2949056423812872e-02  7.7011317862165363e-02  7.9588887276639375e-02  8.0521994306909275e-02  7.9750420851686613e-02  7.7320297041612210e-02  7.3379204218788949e-02  6.8160261951489248e-02  6.1957446494988716e-02  5.5095541105455038e-02  4.7898658282798226e-02  4.0661144972905253e-02  3.3623973686277772e-02  2.6958637325294035e-02  2.0759358740351109e-02  1.5043340060981462e-02  9.7579849281562419e-03  4.7936010678722796e-03  0.0000000000000000e+00  0.0000000000000000e+00  4.1198011152099676e-03  8.3828378009596586e-03  1.2916365919185950e-02  1.7815388823233868e-02  2.3128266349105597e-02  2.8845420218169628e-02  3.4892466269419026e-02  4.1129060771287494e-02  4.7354443904848706e-02  5.3320055377243825e-02  5.8748723715259132e-02  6.3358917340929077e-02  6.6891584233477019e-02  6.9136415225983336e-02  6.9954131704377850e-02  6.9291727054837313e-02  6.7188469713772611e-02  6.3771766466689986e-02  5.9243452283626194e-02  5.3858438450972511e-02  4.7898658282798288e-02  4.1645727366556591e-02  3.5355632601599629e-02  2.9238156762841108e-02  2.3442806727246530e-02  1.8051965232656949e-02  1.3081039280060212e-02  8.4846850077085079e-03  4.1678135863544652e-03  0.0000000000000000e+00  0.0000000000000000e+00  3.4992306774395206e-03  7.1188700704158054e-03  1.0966684520022354e-02  1.5123194987656003e-02  1.9629482293539686e-02  2.4477614010297102e-02  2.9604814826762266e-02  3.4892466269418977e-02  4.0170766837886930e-02  4.5229372678493703e-02  4.9833603506363261e-02  5.3744943302054343e-02  5.6743751918128436e-02  5.8651515602160614e-02  5.9349760951282637e-02  5.8793028322388460e-02  5.7014038032286676e-02  5.4120271105412072e-02  5.0282427903044748e-02  4.5716386902673350e-02  4.0661144972905301e-02  3.5355632601599643e-02  3.0017217924237175e-02  2.4824204208829689e-02  1.9903832674760265e-02  1.5326413428131395e-02  1.1105401416840611e-02  7.2026416540242194e-03  3.5376847457241054e-03  0.0000000000000000e+00  0.0000000000000000e+00  2.8970002524462911e-03  5.8923601004702772e-03  9.0750553965253007e-03  1.2511611298941355e-02  1.6236035110565494e-02  2.0241916431711370e-02  2.4477614010297074e-02  2.8845420218169566e-02  3.3205386504416824e-02  3.7384075114383568e-02  4.1187899144930117e-02  4.4420010078304088e-02  4.6899021695579295e-02  4.8477372561128544e-02  4.9056957696102625e-02  4.8599878985626815e-02  4.7132767030074900e-02  4.4744021398090431e-02  4.1574339385469693e-02  3.7801861333285704e-02  3.3623973686277862e-02  2.9238156762841160e-02  2.4824204208829713e-02  2.0529725150406890e-02  1.6460187648730737e-02  1.2674027458213282e-02  9.1826778560140619e-03  5.9548825957885633e-03  2.9243823314706757e-03  0.0000000000000000e+00  0.0000000000000000e+00  2.3268427385502348e-03  4.7313326871510301e-03  7.2847925426536130e-03  1.0040572781755337e-02  1.3025994579649555e-02  1.6236035110565497e-02  1.9629482293539651e-02  2.3128266349105538e-02  2.6620512488630194e-02  2.9967527546468253e-02  3.3014453520377067e-02  3.5603760675503096e-02  3.7590217401606917e-02  3.8855583670181430e-02  3.9321135053537730e-02  3.8956295708681782e-02  3.7782137462042988e-02  3.5869214727103998e-02  3.3330022569315908e-02  3.0307132878028883e-02  2.6958637325294094e-02  2.3442806727246572e-02  1.9903832674760296e-02  1.6460187648730754e-02  1.3196619161368687e-02  1.0160204968463007e-02  7.3603591545528639e-03  4.7722798520880190e-03  2.3431068704863043e-03  0.0000000000000000e+00  0.0000000000000000e+00  1.7959629923021631e-03  3.6505178408347992e-03  5.6187000195495685e-03  7.7416789654388462e-03  1.0040572781755335e-02  1.2511611298941345e-02  1.5123194987655974e-02  1.7815388823233823e-02  2.0502268205886565e-02  2.3077281392788959e-02  2.5421425915029647e-02  2.7413607193882639e-02  2.8942136551498472e-02  2.9916025142833834e-02  3.0274620970686793e-02  2.9994265251742581e-02  2.9091009574041801e-02  2.7618980887048811e-02  2.5664608988647839e-02  2.3337522024796321e-02  2.0759358740351151e-02  1.8051965232656987e-02  1.5326413428131416e