<?xml version="1.0"?>
<VTKFile type="UnstructuredGrid"  version="0.1"  >
<UnstructuredGrid>
<Piece  NumberOfPoints="961" NumberOfCells="1800">
<Points>
<DataArray  type="Float64"  NumberOfComponents="3"  format="ascii">-2 -2 0  -1.866666666666667 -2 0  -1.733333333333333 -2 0  -1.6 -2 0  -1.466666666666667 -2 0  -1.333333333333333 -2 0  -1.2 -2 0  -1.066666666666667 -2 0  -0.9333333333333333 -2 0  -0.8 -2 0  -0.6666666666666667 -2 0  -0.5333333333333334 -2 0  -0.3999999999999999 -2 0  -0.2666666666666666 -2 0  -0.1333333333333333 -2 0  0 -2 0  0.1333333333333333 -2 0  0.2666666666666666 -2 0  0.3999999999999999 -2 0  0.5333333333333332 -2 0  0.6666666666666665 -2 0  0.7999999999999998 -2 0  0.9333333333333331 -2 0  1.066666666666667 -2 0  1.2 -2 0  1.333333333333333 -2 0  1.466666666666667 -2 0  1.6 -2 0  1.733333333333333 -2 0  1.866666666666667 -2 0  2 -2 0  -2 -1.866666666666667 0  -1.866666666666667 -1.866666666666667 0  -1.733333333333333 -1.866666666666667 0  -1.6 -1.866666666666667 0  -1.466666666666667 -1.866666666666667 0  -1.333333333333333 -1.866666666666667 0  -1.2 -1.866666666666667 0  -1.066666666666667 -1.866666666666667 0  -0.9333333333333333 -1.866666666666667 0  -0.8 -1.866666666666667 0  -0.6666666666666667 -1.866666666666667 0  -0.5333333333333334 -1.866666666666667 0  -0.3999999999999999 -1.866666666666667 0  -0.2666666666666666 -1.866666666666667 0  -0.1333333333333333 -1.866666666666667 0  0 -1.866666666666667 0  0.1333333333333333 -1.866666666666667 0  0.2666666666666666 -1.866666666666667 0  0.3999999999999999 -1.866666666666667 0  0.5333333333333332 -1.866666666666667 0  0.6666666666666665 -1.866666666666667 0  0.7999999999999998 -1.866666666666667 0  0.9333333333333331 -1.866666666666667 0  1.066666666666667 -1.866666666666667 0  1.2 -1.866666666666667 0  1.333333333333333 -1.866666666666667 0  1.466666666666667 -1.866666666666667 0  1.6 -1.866666666666667 0  1.733333333333333 -1.866666666666667 0  1.866666666666667 -1.866666666666667 0  2 -1.866666666666667 0  -2 -1.733333333333333 0  -1.866666666666667 -1.733333333333333 0  -1.733333333333333 -1.733333333333333 0  -1.6 -1.733333333333333 0  -1.466666666666667 -1.733333333333333 0  -1.333333333333333 -1.733333333333333 0  -1.2 -1.733333333333333 0  -1.066666666666667 -1.733333333333333 0  -0.9333333333333333 -1.733333333333333 0  -0.8 -1.733333333333333 0  -0.6666666666666667 -1.733333333333333 0  -0.5333333333333334 -1.733333333333333 0  -0.3999999999999999 -1.733333333333333 0  -0.2666666666666666 -1.733333333333333 0  -0.1333333333333333 -1.733333333333333 0  0 -1.733333333333333 0  0.1333333333333333 -1.733333333333333 0  0.2666666666666666 -1.733333333333333 0  0.3999999999999999 -1.733333333333333 0  0.5333333333333332 -1.733333333333333 0  0.6666666666666665 -1.733333333333333 0  0.7999999999999998 -1.733333333333333 0  0.9333333333333331 -1.733333333333333 0  1.066666666666667 -1.733333333333333 0  1.2 -1.733333333333333 0  1.333333333333333 -1.733333333333333 0  1.466666666666667 -1.733333333333333 0  1.6 -1.733333333333333 0  1.733333333333333 -1.733333333333333 0  1.866666666666667 -1.733333333333333 0  2 -1.733333333333333 0  -2 -1.6 0  -1.866666666666667 -1.6 0  -1.733333333333333 -1.6 0  -1.6 -1.6 0  -1.466666666666667 -1.6 0  -1.333333333333333 -1.6 0  -1.2 -1.6 0  -1.066666666666667 -1.6 0  -0.9333333333333333 -1.6 0  -0.8 -1.6 0  -0.6666666666666667 -1.6 0  -0.5333333333333334 -1.6 0  -0.3999999999999999 -1.6 0  -0.2666666666666666 -1.6 0  -0.1333333333333333 -1.6 0  0 -1.6 0  0.1333333333333333 -1.6 0  0.2666666666666666 -1.6 0  0.3999999999999999 -1.6 0  0.5333333333333332 -1.6 0  0.6666666666666665 -1.6 0  0.7999999999999998 -1.6 0  0.9333333333333331 -1.6 0  1.066666666666667 -1.6 0  1.2 -1.6 0  1.333333333333333 -1.6 0  1.466666666666667 -1.6 0  1.6 -1.6 0  1.733333333333333 -1.6 0  1.866666666666667 -1.6 0  2 -1.6 0  -2 -1.466666666666667 0  -1.866666666666667 -1.466666666666667 0  -1.733333333333333 -1.466666666666667 0  -1.6 -1.466666666666667 0  -1.466666666666667 -1.466666666666667 0  -1.333333333333333 -1.466666666666667 0  -1.2 -1.466666666666667 0  -1.066666666666667 -1.466666666666667 0  -0.9333333333333333 -1.466666666666667 0  -0.8 -1.466666666666667 0  -0.6666666666666667 -1.466666666666667 0  -0.5333333333333334 -1.466666666666667 0  -0.3999999999999999 -1.466666666666667 0  -0.2666666666666666 -1.466666666666667 0  -0.1333333333333333 -1.466666666666667 0  0 -1.466666666666667 0  0.1333333333333333 -1.466666666666667 0  0.2666666666666666 -1.466666666666667 0  0.3999999999999999 -1.466666666666667 0  0.5333333333333332 -1.466666666666667 0  0.6666666666666665 -1.466666666666667 0  0.7999999999999998 -1.466666666666667 0  0.9333333333333331 -1.466666666666667 0  1.066666666666667 -1.466666666666667 0  1.2 -1.466666666666667 0  1.333333333333333 -1.466666666666667 0  1.466666666666667 -1.466666666666667 0  1.6 -1.466666666666667 0  1.733333333333333 -1.466666666666667 0  1.866666666666667 -1.466666666666667 0  2 -1.466666666666667 0  -2 -1.333333333333333 0  -1.866666666666667 -1.333333333333333 0  -1.733333333333333 -1.333333333333333 0  -1.6 -1.333333333333333 0  -1.466666666666667 -1.333333333333333 0  -1.333333333333333 -1.333333333333333 0  -1.2 -1.333333333333333 0  -1.066666666666667 -1.333333333333333 0  -0.9333333333333333 -1.333333333333333 0  -0.8 -1.333333333333333 0  -0.6666666666666667 -1.333333333333333 0  -0.5333333333333334 -1.333333333333333 0  -0.3999999999999999 -1.333333333333333 0  -0.2666666666666666 -1.333333333333333 0  -0.1333333333333333 -1.333333333333333 0  0 -1.333333333333333 0  0.1333333333333333 -1.333333333333333 0  0.2666666666666666 -1.333333333333333 0  0.3999999999999999 -1.333333333333333 0  0.5333333333333332 -1.333333333333333 0  0.6666666666666665 -1.333333333333333 0  0.7999999999999998 -1.333333333333333 0  0.9333333333333331 -1.333333333333333 0  1.066666666666667 -1.333333333333333 0  1.2 -1.333333333333333 0  1.333333333333333 -1.333333333333333 0  1.466666666666667 -1.333333333333333 0  1.6 -1.333333333333333 0  1.733333333333333 -1.333333333333333 0  1.866666666666667 -1.333333333333333 0  2 -1.333333333333333 0  -2 -1.2 0  -1.866666666666667 -1.2 0  -1.733333333333333 -1.2 0  -1.6 -1.2 0  -1.466666666666667 -1.2 0  -1.333333333333333 -1.2 0  -1.2 -1.2 0  -1.066666666666667 -1.2 0  -0.9333333333333333 -1.2 0  -0.8 -1.2 0  -0.6666666666666667 -1.2 0  -0.5333333333333334 -1.2 0  -0.3999999999999999 -1.2 0  -0.2666666666666666 -1.2 0  -0.1333333333333333 -1.2 0  0 -1.2 0  0.1333333333333333 -1.2 0  0.2666666666666666 -1.2 0  0.3999999999999999 -1.2 0  0.5333333333333332 -1.2 0  0.6666666666666665 -1.2 0  0.7999999999999998 -1.2 0  0.9333333333333331 -1.2 0  1.066666666666667 -1.2 0  1.2 -1.2 0  1.333333333333333 -1.2 0  1.466666666666667 -1.2 0  1.6 -1.2 0  1.733333333333333 -1.2 0  1.866666666666667 -1.2 0  2 -1.2 0  -2 -1.066666666666667 0  -1.866666666666667 -1.066666666666667 0  -1.733333333333333 -1.066666666666667 0  -1.6 -1.066666666666667 0  -1.466666666666667 -1.066666666666667 0  -1.333333333333333 -1.066666666666667 0  -1.2 -1.066666666666667 0  -1.066666666666667 -1.066666666666667 0  -0.9333333333333333 -1.066666666666667 0  -0.8 -1.066666666666667 0  -0.6666666666666667 -1.066666666666667 0  -0.5333333333333334 -1.066666666666667 0  -0.3999999999999999 -1.066666666666667 0  -0.2666666666666666 -1.066666666666667 0  -0.1333333333333333 -1.066666666666667 0  0 -1.066666666666667 0  0.1333333333333333 -1.066666666666667 0  0.2666666666666666 -1.066666666666667 0  0.3999999999999999 -1.066666666666667 0  0.5333333333333332 -1.066666666666667 0  0.6666666666666665 -1.066666666666667 0  0.7999999999999998 -1.066666666666667 0  0.9333333333333331 -1.066666666666667 0  1.066666666666667 -1.066666666666667 0  1.2 -1.066666666666667 0  1.333333333333333 -1.066666666666667 0  1.466666666666667 -1.066666666666667 0  1.6 -1.066666666666667 0  1.733333333333333 -1.066666666666667 0  1.866666666666667 -1.066666666666667 0  2 -1.066666666666667 0  -2 -0.9333333333333333 0  -1.866666666666667 -0.9333333333333333 0  -1.733333333333333 -0.9333333333333333 0  -1.6 -0.9333333333333333 0  -1.466666666666667 -0.9333333333333333 0  -1.333333333333333 -0.9333333333333333 0  -1.2 -0.9333333333333333 0  -1.066666666666667 -0.9333333333333333 0  -0.9333333333333333 -0.9333333333333333 0  -0.8 -0.9333333333333333 0  -0.6666666666666667 -0.9333333333333333 0  -0.5333333333333334 -0.9333333333333333 0  -0.3999999999999999 -0.9333333333333333 0  -0.2666666666666666 -0.9333333333333333 0  -0.1333333333333333 -0.9333333333333333 0  0 -0.9333333333333333 0  0.1333333333333333 -0.9333333333333333 0  0.2666666666666666 -0.9333333333333333 0  0.3999999999999999 -0.9333333333333333 0  0.5333333333333332 -0.9333333333333333 0  0.6666666666666665 -0.9333333333333333 0  0.7999999999999998 -0.9333333333333333 0  0.9333333333333331 -0.9333333333333333 0  1.066666666666667 -0.9333333333333333 0  1.2 -0.9333333333333333 0  1.333333333333333 -0.9333333333333333 0  1.466666666666667 -0.9333333333333333 0  1.6 -0.9333333333333333 0  1.733333333333333 -0.9333333333333333 0  1.866666666666667 -0.9333333333333333 0  2 -0.9333333333333333 0  -2 -0.8 0  -1.866666666666667 -0.8 0  -1.733333333333333 -0.8 0  -1.6 -0.8 0  -1.466666666666667 -0.8 0  -1.333333333333333 -0.8 0  -1.2 -0.8 0  -1.066666666666667 -0.8 0  -0.9333333333333333 -0.8 0  -0.8 -0.8 0  -0.6666666666666667 -0.8 0  -0.5333333333333334 -0.8 0  -0.3999999999999999 -0.8 0  -0.2666666666666666 -0.8 0  -0.1333333333333333 -0.8 0  0 -0.8 0  0.1333333333333333 -0.8 0  0.2666666666666666 -0.8 0  0.3999999999999999 -0.8 0  0.5333333333333332 -0.8 0  0.6666666666666665 -0.8 0  0.7999999999999998 -0.8 0  0.9333333333333331 -0.8 0  1.066666666666667 -0.8 0  1.2 -0.8 0  1.333333333333333 -0.8 0  1.466666666666667 -0.8 0  1.6 -0.8 0  1.733333333333333 -0.8 0  1.866666666666667 -0.8 0  2 -0.8 0  -2 -0.6666666666666667 0  -1.866666666666667 -0.
[...]
<PointData  Scalars="f_12"> 
<DataArray  type="Float64"  Name="f_12"  format="ascii">0.0000000000000000e+00  0.0000000000000000e+00  0.0000000000000000e+00  0.0000000000000000e+00  0.0000000000000000e+00  0.0000000000000000e+00  0.0000000000000000e+00  0.0000000000000000e+00  0.0000000000000000e+00  0.0000000000000000e+00  0.0000000000000000e+00  0.0000000000000000e+00  0.0000000000000000e+00  0.0000000000000000e+00  0.0000000000000000e+00  0.0000000000000000e+00  0.0000000000000000e+00  0.0000000000000000e+00  0.0000000000000000e+00  0.0000000000000000e+00  0.0000000000000000e+00  0.0000000000000000e+00  0.0000000000000000e+00  0.0000000000000000e+00  0.0000000000000000e+00  0.0000000000000000e+00  0.0000000000000000e+00  0.0000000000000000e+00  0.0000000000000000e+00  0.0000000000000000e+00  0.0000000000000000e+00  0.0000000000000000e+00  5.2956898540545733e-04  1.0544477884880431e-03  1.5707414564807591e-03  2.0741623972407408e-03  2.5600412244953098e-03  3.0233328739352520e-03  3.4586619197503497e-03  3.8604202260518919e-03  4.2229166185798273e-03  4.5405701328401285e-03  4.8081327105438483e-03  5.0209234453468350e-03  5.1750546459429763e-03  5.2676301555950105e-03  5.2968984880097615e-03  5.2623471892576223e-03  5.1647300300132716e-03  5.0060246559265635e-03  4.7893245790544599e-03  4.5186752618032568e-03  4.1988689515010296e-03  3.8352163959533381e-03  3.4333152880003937e-03  2.9988351195074456e-03  2.5373361585701963e-03  2.0541368377983310e-03  1.5542396632267548e-03  1.0423223282394313e-03  5.2280201880170189e-04  0.0000000000000000e+00  0.0000000000000000e+00  1.0544477884880435e-03  2.0999340826328003e-03  3.1284440854551132e-03  4.1313615548618900e-03  5.0993635974131840e-03  6.0223965285080769e-03  6.8897542376319789e-03  7.6902680312143819e-03  8.4126025536878750e-03  9.0456395588811769e-03  9.5789209517253022e-03  1.0003115297590435e-02  1.0310468423443075e-02  1.0495199084192051e-02  1.0553804878512183e-02  1.0485251249641479e-02  1.0291026741180723e-02  9.9750596722401105e-03  9.5435038618517203e-03  9.0044127373724615e-03  8.3673309572315138e-03  7.6428396185772721e-03  6.8420945586168021e-03  5.9763969159798650e-03  5.0568311203434673e-03  4.0939983626048287e-03  3.0978643065158345e-03  2.0777296388729129e-03  1.0423223282394316e-03  0.0000000000000000e+00  0.0000000000000000e+00  1.5707414564807582e-03  3.1284440854551115e-03  4.6610028496359840e-03  6.1555092225041340e-03  7.5980453276278427e-03  8.9736235577888949e-03  1.0266291679898653e-02  1.1459409810331651e-02  1.2536088123503904e-02  1.3479756877448363e-02  1.4274825674486910e-02  1.4907378402376095e-02  1.5365845070091502e-02  1.5641592285247519e-02  1.5729380377324031e-02  1.5627646548141270e-02  1.5338588812543370e-02  1.4868043358980041e-02  1.4225166542855232e-02  1.3421950188397461e-02  1.2472613502208692e-02  1.1392925276069360e-02  1.0199515201691918e-02  8.9092325966776617e-03  7.5386047854542225e-03  6.1034364786272432e-03  4.6185768838139978e-03  3.0978643065158371e-03  1.5542396632267559e-03  0.0000000000000000e+00  0.0000000000000000e+00  2.0741623972407404e-03  4.1313615548618883e-03  6.1555092225041314e-03  8.1295036801464458e-03  1.0034939899096023e-02  1.1852015905893938e-02  1.3559662576176556e-02  1.5135903766032681e-02  1.6558430835941825e-02  1.7805353346705528e-02  1.8856068686929434e-02  1.9692179724759926e-02  2.0298382719748508e-02  2.0663248428895789e-02  2.0779827575896637e-02  2.0646026847036182e-02  2.0264721869795242e-02  1.9643597221643834e-02  1.8794728073148546e-02  1.7733941164114086e-02  1.6480012173556272e-02  1.5053770292674091e-02  1.3477187641338324e-02  1.1772530481688267e-02  9.9616411240330618e-03  8.0654048452079609e-03  6.1034364786272449e-03  4.0939983626048296e-03  2.0541368377983327e-03  0.0000000000000000e+00  0.0000000000000000e+00  2.5600412244953098e-03  5.0993635974131831e-03  7.5980453276278410e-03  1.0034939899096026e-02  1.2387311340837322e-02  1.4630710757945250e-02  1.6739129955131788e-02  1.8685441014080907e-02  2.0442101970673313e-02  2.1982081215908295e-02  2.3279929829648351e-02  2.4312914221108099e-02  2.5062112978166174e-02  2.5513382652599524e-02  2.5658107325668818e-02  2.5493665263841263e-02  2.5023570995131438e-02  2.4257280251287795e-02  2.3209675551635212e-02  2.1900278752646902e-02  2.0352260844640101e-02  1.8591336311550227e-02  1.6644637859701505e-02  1.4539666508763842e-02  1.2303402086705004e-02  9.9616411240330653e-03  7.5386047854542242e-03  5.0568311203434699e-03  2.5373361585701976e-03  0.0000000000000000e+00  0.0000000000000000e+00  3.0233328739352498e-03  6.0223965285080812e-03  8.9736235577889071e-03  1.1852015905893942e-02  1.4630710757945257e-02  1.7280829726652465e-02  1.9771655280219930e-02  2.2071145606478604e-02  2.4146764746850315e-02  2.5966572153062830e-02  2.7500488093577174e-02  2.8721631400763680e-02  2.9607615983200629e-02  3.0141693431975484e-02  3.0313640929647299e-02  3.0120315421832779e-02  2.9565824526746966e-02  2.8661299036895793e-02  2.7424287712202254e-02  2.5877828831716694e-02  2.4049281337903360e-02  2.1969018609190850e-02  1.9669098005228459e-02  1.7182018437318449e-02  1.4539666508763848e-02  1.1772530481688272e-02  8.9092325966776634e-03  5.9763969159798650e-03  2.9988351195074456e-03  0.0000000000000000e+00  0.0000000000000000e+00  3.4586619197503527e-03  6.8897542376319901e-03  1.0266291679898669e-02  1.3559662576176568e-02  1.6739129955131798e-02  1.9771655280219940e-02  2.2622096151066355e-02  2.5253791482766449e-02  2.7629508095851251e-02  2.9712685090626884e-02  3.1468880542648708e-02  3.2867302148213803e-02  3.3882291832768002e-02  3.4494635271292956e-02  3.4692580770550409e-02  3.4472476776162289e-02  3.3838970991287680e-02  3.2804753415967669e-02  3.1389866652258548e-02  2.9620645513280426e-02  2.7528380514320942e-02  2.5147823038101601e-02  2.2515661636299061e-02  1.9669098005228473e-02  1.6644637859701501e-02  1.3477187641338316e-02  1.0199515201691904e-02  6.8420945586167943e-03  3.4333152880003915e-03  0.0000000000000000e+00  0.0000000000000000e+00  3.8604202260518979e-03  7.6902680312143975e-03  1.1459409810331682e-02  1.5135903766032709e-02  1.8685441014080928e-02  2.2071145606478635e-02  2.5253791482766449e-02  2.8192452049378626e-02  3.0845553767207701e-02  3.3172263070825908e-02  3.5134100282013650e-02  3.6696648487197260e-02  3.7831212257873989e-02  3.8516282016501098e-02  3.8738674811158370e-02  3.8494249873880171e-02  3.7788134929137809e-02  3.6634443100037425e-02  3.5055506095993588e-02  3.3080692625421182e-02  3.0744917399563414e-02  2.8086972125457653e-02  2.5147823038101598e-02  2.1969018609190847e-02  1.8591336311550216e-02  1.5053770292674075e-02  1.1392925276069343e-02  7.6428396185772660e-03  3.8352163959533350e-03  0.0000000000000000e+00  0.0000000000000000e+00  4.2229166185798334e-03  8.4126025536878923e-03  1.2536088123503941e-02  1.6558430835941870e-02  2.0442101970673351e-02  2.4146764746850357e-02  2.7629508095851282e-02  3.0845553767207698e-02  3.3749405943909287e-02  3.6296366435309715e-02  3.8444299385193989e-02  4.0155501191966828e-02  4.1398516876068533e-02  4.2149745000432018e-02  4.2394689491228085e-02  4.2128746814281651e-02  4.1357458026765048e-02  4.0096203214072104e-02  3.8369365998581394e-02  3.6209043209466128e-02  3.3653414760879095e-02  3.0744917399563435e-02  2.7528380514320959e-02  2.4049281337903371e-02  2.0352260844640122e-02  1.6480012173556279e-02  1.2472613502208700e-02  8.3673309572315207e-03  4.1988689515010348e-03  0.0000000000000000e+00  0.0000000000000000e+00  4.5405701328401389e-03  9.0456395588811994e-03  1.3479756877448408e-02  1.7805353346705577e-02  2.1982081215908347e-02  2.5966572153062886e-02  2.9712685090626932e-02  3.3172263070825943e-02  3.6296366435309736e-02  3.9036900047212199e-02  4.1348510043859650e-02  4.3190595112899431e-02  4.4529261581040196e-02  4.5339052387391790e-02  4.5604297338810114e-02  4.5319964310336490e-02  4.4491935142486845e-02  4.3136681573473216e-02  4.1280370534470444e-02  3.8957479191704412e-02  3.6209043209466170e-02  3.3080692625421237e-02  2.9620645513280454e-02  2.5877828831716718e-02  2.1900278752646937e-02  1.7733941164114111e-02  1.3421950188397487e-02  9.0044127373724806e-03  4.5186752618032672e-03  0.0000000000000000e+00  0.0000000000000000e+00  4.8081327105438587e-03  9.5789209517253265e-03  1.4274825674486949e-02  1.8856068686929472e-02  2.3279929829648414e-02  2.7500488093577250e-02  3.1468880542648736e-02  3.5134100282013705e-02  3.8444299385194045e-02  4.1348510043859664e-02  4.3798652416604258e-02  4.5751665206014216e-02  4.7171578201953446e-02  4.8031346693497248e-02  4.8314285849364383e-02  4.8014977216833697e-02  4.7139566104624962e-02  4.5705423224582667e-02  4.3740201178619646e-02  4.1280370534470472e-02  3.8369365998581442e-02  3.5055506095993706e-02  3.1389866652258569e-02  2.7424287712202299e-02  2.3209675551635254e-02  1.8794728073148581e-02  1.4225166542855256e-02  9.5435038618517463e-03  4.7893245790544730e-03  0.0000000000000000e+00  0.0000000000000000e+00  5.0209234453468411e-03  1.0003115297590444e-02  1.4907378402376119e-02  1.9692179724759954e-02  2.4312914221108144e-02  2.8721631400763729e-02  3.2867302148213831e-02  3.6696648487197302e-02  4.0155501191966862e-02  4.3190595112899445e-02  4.5751665206014196e-02  4.7793672226744806e-02  4.9278969345248766e-02  5.0179221461592191e-02  5.0476907843895913e-02  5.0166274144509346e-02  4.9253648450444332e-02  4.7757093030409689e-02  4.5705423224582695e-02  4.3136681573473265e-02  4.0096203214072174e-02  3.6634443100037523e-02  3.2804753415967704e-02  2.8661299036895845e-02  2.4257280251287858e-02  1.9643597221643876e-02  1.4868043358980072e-02  9.9750596722401365e-03  5.0060246559265774e-03  0.0000000000000000e+00  0.0000000000000000e+00  5.1750546459429806e-03  1.0310468423443079e-02  1.5365845070091508e-02  2.0298382719748528e-02  2.5062112978166195e-02  2.9607615983200657e-02  3.3882291832768016e-02  3.7831212257874017e-02  4.1398516876068554e-02  4.4529261581040251e-02  4.7171578201953439e-02  4.9278969345248697e-02  5.0812543912574157e-02  5.1742999146668203e-02  5.2052174315295935e-02  5.1734037531196438e-02  5.0795017216239580e-02  4.9253648450444401e-02  4.7139566104625039e-02  4.4491935142486914e-02  4.1357458026765138e-02  3.7788134929137920e-02  3.3838970991287742e-02  2.9565824526747022e-02  2.5023570995131490e-02  2.0264721869795277e-02  1.5338588812543408e-02  1.0291026741180745e-02  5.1647300300132872e-03  0.0000000000000000e+00  0.0000000000000000e+00  5.2676301555950192e-03  1.0495199084192060e-02  1.5641592285247512e-02  2.0663248428895793e-02  2.5513382652599528e-02  3.0141693431975508e-02  3.4494635271293012e-02  3.8516282016501140e-02  4.2149745000432053e-02  4.5339052387391825e-02  4.8031346693497283e-02  5.0179221461592184e-02  5.1742999146668238e-02  5.2692752449774907e-02  5.3009890771531662e-02  5.2688170358278705e-02  5.1734037531196479e-02  5.0166274144509408e-02  4.8014977216833780e-02  4.5319964310336559e-02  4.2128746814281762e-02  3.8494249873880282e-02  3.4472476776162393e-02  3.0120315421832852e-02  2.5493665263841329e-02  2.0646026847036227e-02  1.5627646548141309e-02  1.0485251249641503e-02  5.2623471892576379e-03  0.0000000000000000e+00  0.0000000000000000e+00  5.2968984880097702e-03  1.0553804878512200e-02  1.5729380377324034e-02  2.0779827575896647e-02  2.5658107325668839e-02  3.0313640929647338e-02  3.4692580770550464e-02  3.8738674811158412e-02  4.2394689491228141e-02  4.5604297338810169e-02  4.8314285849364452e-02  5.0476907843895975e-02  5.2052174315295976e-02  5.3009890771531683e-02  5.3331257453415007e-02  5.3009890771531662e-02  5.2052174315295942e-02  5.0476907843895906e-02  4.8314285849364404e-02  4.5604297338810149e-02  4.2394689491228175e-02  3.8738674811158474e-02  3.4692580770550534e-02  3.0313640929647372e-02  2.5658107325668877e-02  2.0779827575896689e-02  1.5729380377324069e-02  1.0553804878512211e-02  5.2968984880097780e-03  0.0000000000000000e+00  0.0000000000000000e+00  5.2623471892576318e-03  1.0485251249641496e-02  1.5627646548141284e-02  2.0646026847036206e-02  2.5493665263841316e-02  3.0120315421832834e-02  3.4472476776162331e-02  3.8494249873880233e-02  4.2128746814281776e-02  4.5319964310336608e-02  4.8014977216833850e-02  5.0166274144509485e-02  5.1734037531196549e-02  5.2688170358278774e-02  5.3009890771531676e-02  5.2692752449774921e-02  5.1742999146668210e-02  5.0179221461592156e-02  4.8031346693497269e-02  4.5339052387391832e-02  4.2149745000432073e-02  3.8516282016501202e-02  3.4494635271293081e-02  3.0141693431975550e-02  2.5513382652599583e-02  2.0663248428895834e-02  1.5641592285247544e-02  1.0495199084192074e-02  5.2676301555950279e-03  0.0000000000000000e+00  0.0000000000000000e+00  5.1647300300132820e-03  1.0291026741180740e-02  1.5338588812543392e-02  2.0264721869795270e-02  2.5023570995131476e-02  2.9565824526747036e-02  3.3838970991287722e-02  3.7788134929137886e-02  4.1357458026765138e-02  4.4491935142486970e-02  4.7139566104625136e-02  4.9253648450444443e-02  5.0795017216239670e-02  5.1734037531196556e-02  5.2052174315295963e-02  5.1742999146668224e-02  5.0812543912574164e-02  4.9278969345248724e-02  4.7171578201953446e-02  4.4529261581040251e-02  4.1398516876068596e-02  3.7831212257874086e-02  3.3882291832768058e-02  2.9607615983200671e-02  2.5062112978166233e-02  2.0298382719748549e-02  1.5365845070091526e-02  1.0310468423443100e-02  5.1750546459429919e-03  0.0000000000000000e+00  0.0000000000000000e+00  5.0060246559265748e-03  9.9750596722401295e-03  1.4868043358980069e-02  1.9643597221643876e-02  2.4257280251287861e-02  2.8661299036895859e-02  3.2804753415967704e-02  3.6634443100037488e-02  4.0096203214072174e-02  4.3136681573473314e-02  4.5705423224582764e-02  4.7757093030409779e-02  4.9253648450444443e-02  5.0166274144509450e-02  5.0476907843895948e-02  5.0179221461592170e-02  4.9278969345248738e-02  4.7793672226744799e-02  4.5751665206014223e-02  4.3190595112899473e-02  4.0155501191966855e-02  3.6696648487197316e-02  3.2867302148213817e-02  2.8721631400763715e-02  2.4312914221108151e-02  1.9692179724759968e-02  1.4907378402376128e-02  1.0003115297590464e-02  5.0209234453468497e-03  0.0000000000000000e+00  0.0000000000000000e+00  4.7893245790544704e-03  9.5435038618517411e-03  1.4225166542855260e-02  1.8794728073148588e-02  2.3209675551635278e-02  2.7424287712202330e-02  3.1389866652258569e-02  3.5055506095993644e-02  3.8369365998581449e-02  4.1280370534470534e-02  4.3740201178619716e-02  4.5705423224582750e-02  4.7139566104625101e-02  4.8014977216833808e-02  4.8314285849364438e-02  4.8031346693497283e-02  4.7171578201953446e-02  4.5751665206014196e-02  4.3798652416604258e-02  4.1348510043859706e-02  3.8444299385194058e-02  3.5134100282013726e-02  3.1468880542648722e-02  2.7500488093577229e-02  2.3279929829648407e-02  1.8856068686929482e-02  1.4274825674486954e-02  9.5789209517253403e-03  4.8081327105438682e-03  0.0000000000000000e+00  0.0000000000000000e+00  4.5186752618032689e-03  9.0044127373724893e-03  1.3421950188397504e-02  1.7733941164114132e-02  2.1900278752646950e-02  2.5877828831716750e-02  2.9620645513280457e-02  3.3080692625421231e-02  3.6209043209466184e-02  3.8957479191704468e-02  4.1280370534470548e-02  4.3136681573473314e-02  4.4491935142486908e-02  4.5319964310336573e-02  4.5604297338810169e-02  4.5339052387391832e-02  4.4529261581040251e-02  4.3190595112899473e-02  4.1348510043859713e-02  3.9036900047212282e-02  3.6296366435309819e-02  3.3172263070825991e-02  2.9712685090626967e-02  2.5966572153062899e-02  2.1982081215908358e-02  1.7805353346705591e-02  1.3479756877448417e-02  9.0456395588812168e-03  4.5405701328401528e-03  0.0000000000000000e+00  0.0000000000000000e+00  4.1988689515010382e-03  8.3673309572315346e-03  1.2472613502208730e-02  1.6480012173556321e-02  2.0352260844640160e-02  2.4049281337903412e-02  2.7528380514320983e-02  3.0744917399563452e-02  3.3653414760879158e-02  3.6209043209466198e-02  3.8369365998581470e-02  4.0096203214072215e-02  4.1357458026765145e-02  4.2128746814281741e-02  4.2394689491228155e-02  4.2149745000432060e-02  4.1398516876068540e-02  4.0155501191966904e-02  3.8444299385194121e-02  3.6296366435309840e-02  3.3749405943909419e-02  3.0845553767207833e-02  2.7629508095851362e-02  2.4146764746850399e-02  2.0442101970673397e-02  1.6558430835941898e-02  1.2536088123503967e-02  8.4126025536879184e-03  4.2229166185798498e-03  0.0000000000000000e+00  0.0000000000000000e+00  3.8352163959533480e-03  7.6428396185772938e-03  1.1392925276069398e-02  1.5053770292674132e-02  1.8591336311550265e-02  2.1969018609190906e-02  2.5147823038101647e-02  2.8086972125457677e-02  3.0744917399563469e-02  3.3080692625421251e-02  3.5055506095993713e-02  3.6634443100037536e-02  3.7788134929137907e-02  3.8494249873880275e-02  3.8738674811158481e-02  3.8516282016501181e-02  3.7831212257874051e-02  3.6696648487197364e-02  3.5134100282013796e-02  3.3172263070826068e-02  3.0845553767207875e-02  2.8192452049378796e-02  2.5253791482766585e-02  2.2071145606478715e-02  1.8685441014081004e-02  1.5135903766032759e-02  1.1459409810331722e-02  7.6902680312144252e-03  3.8604202260519140e-03  0.0000000000000000e+00  0.0000000000000000e+00  3.4333152880004028e-03  6.8420945586168186e-03  1.0199515201691947e-02  1.3477187641338361e-02  1.6644637859701557e-02  1.9669098005228515e-02  2.2515661636299103e-02  2.5147823038101615e-02  2.7528380514320983e-02  2.9620645513280464e-02  3.1389866652258604e-02  3.2804753415967731e-02  3.3838970991287749e-02  3.4472476776162372e-02  3.4692580770550506e-02  3.4494635271293039e-02  3.3882291832768079e-02  3.2867302148213901e-02  3.1468880542648819e-02  2.9712685090627033e-02  2.7629508095851393e-02  2.5253791482766606e-02  2.2622096151066473e-02  1.9771655280220030e-02  1.6739129955131857e-02  1.3559662576176617e-02  1.0266291679898702e-02  6.8897542376320084e-03  3.4586619197503644e-03  0.0000000000000000e+00  0.0000000000000000e+00  2.9988351195074522e-03  5.9763969159798789e-03  8.9092325966776981e-03  1.1772530481688302e-02  1.4539666508763881e-02  1.7182018437318491e-02  1.9669098005228498e-02  2.1969018609190861e-02  2.4049281337903392e-02  2.5877828831716732e-02  2.7424287712202323e-02  2.8661299036895852e-02  2.9565824526747022e-02  3.0120315421832834e-02  3.0313640929647362e-02  3.0141693431975543e-02  2.9607615983200702e-02  2.8721631400763770e-02  2.7500488093577306e-02  2.5966572153062972e-02  2.4146764746850475e-02  2.2071145606478760e-02  1.9771655280220041e-02  1.7280829726652538e-02  1.4630710757945297e-02  1.1852015905893971e-02  8.9736235577889244e-03  6.0223965285080960e-03  3.0233328739352576e-03  0.0000000000000000e+00  0.0000000000000000e+00  2.5373361585702011e-03  5.0568311203434821e-03  7.5386047854542441e-03  9.9616411240330879e-03  1.2303402086705032e-02  1.4539666508763876e-02  1.6644637859701522e-02  1.8591336311550230e-02  2.0352260844640119e-02  2.1900278752646940e-02  2.3209675551635240e-02  2.4257280251287847e-02  2.5023570995131483e-02  2.5493665263841298e-02  2.5658107325668856e-02  2.5513382652599583e-02  2.5062112978166254e-02  2.4312914221108189e-02  2.3279929829648469e-02  2.1982081215908427e-02  2.0442101970673459e-02  1.8685441014081046e-02  1.6739129955131889e-02  1.4630710757945318e-02  1.2387311340837363e-02  1.0034939899096058e-02  7.5980453276278661e-03  5.0993635974132022e-03  2.5600412244953163e-03  0.0000000000000000e+00  0.0000000000000000e+00  2.0541368377983362e-03  4.0939983626048383e-03  6.1034364786272588e-03  8.0654048452079782e-03  9.9616411240330844e-03  1.1772530481688290e-02  1.3477187641338331e-02  1.5053770292674091e-02  1.6480012173556290e-02  1.7733941164114114e-02  1.8794728073148574e-02  1.9643597221643883e-02  2.0264721869795301e-02  2.0646026847036213e-02  2.0779827575896671e-02  2.0663248428895838e-02  2.0298382719748570e-02  1.9692179724759999e-02  1.8856068686929520e-02  1.7805353346705636e-02  1.6558430835941943e-02  1.5135903766032790e-02  1.3559662576176629e