<?xml version="1.0"?>
<VTKFile type="UnstructuredGrid"  version="0.1"  >
<UnstructuredGrid>
<Piece  NumberOfPoints="961" NumberOfCells="1800">
<Points>
<DataArray  type="Float64"  NumberOfComponents="3"  format="ascii">-2 -2 0  -1.866666666666667 -2 0  -1.733333333333333 -2 0  -1.6 -2 0  -1.466666666666667 -2 0  -1.333333333333333 -2 0  -1.2 -2 0  -1.066666666666667 -2 0  -0.9333333333333333 -2 0  -0.8 -2 0  -0.6666666666666667 -2 0  -0.5333333333333334 -2 0  -0.3999999999999999 -2 0  -0.2666666666666666 -2 0  -0.1333333333333333 -2 0  0 -2 0  0.1333333333333333 -2 0  0.2666666666666666 -2 0  0.3999999999999999 -2 0  0.5333333333333332 -2 0  0.6666666666666665 -2 0  0.7999999999999998 -2 0  0.9333333333333331 -2 0  1.066666666666667 -2 0  1.2 -2 0  1.333333333333333 -2 0  1.466666666666667 -2 0  1.6 -2 0  1.733333333333333 -2 0  1.866666666666667 -2 0  2 -2 0  -2 -1.866666666666667 0  -1.866666666666667 -1.866666666666667 0  -1.733333333333333 -1.866666666666667 0  -1.6 -1.866666666666667 0  -1.466666666666667 -1.866666666666667 0  -1.333333333333333 -1.866666666666667 0  -1.2 -1.866666666666667 0  -1.066666666666667 -1.866666666666667 0  -0.9333333333333333 -1.866666666666667 0  -0.8 -1.866666666666667 0  -0.6666666666666667 -1.866666666666667 0  -0.5333333333333334 -1.866666666666667 0  -0.3999999999999999 -1.866666666666667 0  -0.2666666666666666 -1.866666666666667 0  -0.1333333333333333 -1.866666666666667 0  0 -1.866666666666667 0  0.1333333333333333 -1.866666666666667 0  0.2666666666666666 -1.866666666666667 0  0.3999999999999999 -1.866666666666667 0  0.5333333333333332 -1.866666666666667 0  0.6666666666666665 -1.866666666666667 0  0.7999999999999998 -1.866666666666667 0  0.9333333333333331 -1.866666666666667 0  1.066666666666667 -1.866666666666667 0  1.2 -1.866666666666667 0  1.333333333333333 -1.866666666666667 0  1.466666666666667 -1.866666666666667 0  1.6 -1.866666666666667 0  1.733333333333333 -1.866666666666667 0  1.866666666666667 -1.866666666666667 0  2 -1.866666666666667 0  -2 -1.733333333333333 0  -1.866666666666667 -1.733333333333333 0  -1.733333333333333 -1.733333333333333 0  -1.6 -1.733333333333333 0  -1.466666666666667 -1.733333333333333 0  -1.333333333333333 -1.733333333333333 0  -1.2 -1.733333333333333 0  -1.066666666666667 -1.733333333333333 0  -0.9333333333333333 -1.733333333333333 0  -0.8 -1.733333333333333 0  -0.6666666666666667 -1.733333333333333 0  -0.5333333333333334 -1.733333333333333 0  -0.3999999999999999 -1.733333333333333 0  -0.2666666666666666 -1.733333333333333 0  -0.1333333333333333 -1.733333333333333 0  0 -1.733333333333333 0  0.1333333333333333 -1.733333333333333 0  0.2666666666666666 -1.733333333333333 0  0.3999999999999999 -1.733333333333333 0  0.5333333333333332 -1.733333333333333 0  0.6666666666666665 -1.733333333333333 0  0.7999999999999998 -1.733333333333333 0  0.9333333333333331 -1.733333333333333 0  1.066666666666667 -1.733333333333333 0  1.2 -1.733333333333333 0  1.333333333333333 -1.733333333333333 0  1.466666666666667 -1.733333333333333 0  1.6 -1.733333333333333 0  1.733333333333333 -1.733333333333333 0  1.866666666666667 -1.733333333333333 0  2 -1.733333333333333 0  -2 -1.6 0  -1.866666666666667 -1.6 0  -1.733333333333333 -1.6 0  -1.6 -1.6 0  -1.466666666666667 -1.6 0  -1.333333333333333 -1.6 0  -1.2 -1.6 0  -1.066666666666667 -1.6 0  -0.9333333333333333 -1.6 0  -0.8 -1.6 0  -0.6666666666666667 -1.6 0  -0.5333333333333334 -1.6 0  -0.3999999999999999 -1.6 0  -0.2666666666666666 -1.6 0  -0.1333333333333333 -1.6 0  0 -1.6 0  0.1333333333333333 -1.6 0  0.2666666666666666 -1.6 0  0.3999999999999999 -1.6 0  0.5333333333333332 -1.6 0  0.6666666666666665 -1.6 0  0.7999999999999998 -1.6 0  0.9333333333333331 -1.6 0  1.066666666666667 -1.6 0  1.2 -1.6 0  1.333333333333333 -1.6 0  1.466666666666667 -1.6 0  1.6 -1.6 0  1.733333333333333 -1.6 0  1.866666666666667 -1.6 0  2 -1.6 0  -2 -1.466666666666667 0  -1.866666666666667 -1.466666666666667 0  -1.733333333333333 -1.466666666666667 0  -1.6 -1.466666666666667 0  -1.466666666666667 -1.466666666666667 0  -1.333333333333333 -1.466666666666667 0  -1.2 -1.466666666666667 0  -1.066666666666667 -1.466666666666667 0  -0.9333333333333333 -1.466666666666667 0  -0.8 -1.466666666666667 0  -0.6666666666666667 -1.466666666666667 0  -0.5333333333333334 -1.466666666666667 0  -0.3999999999999999 -1.466666666666667 0  -0.2666666666666666 -1.466666666666667 0  -0.1333333333333333 -1.466666666666667 0  0 -1.466666666666667 0  0.1333333333333333 -1.466666666666667 0  0.2666666666666666 -1.466666666666667 0  0.3999999999999999 -1.466666666666667 0  0.5333333333333332 -1.466666666666667 0  0.6666666666666665 -1.466666666666667 0  0.7999999999999998 -1.466666666666667 0  0.9333333333333331 -1.466666666666667 0  1.066666666666667 -1.466666666666667 0  1.2 -1.466666666666667 0  1.333333333333333 -1.466666666666667 0  1.466666666666667 -1.466666666666667 0  1.6 -1.466666666666667 0  1.733333333333333 -1.466666666666667 0  1.866666666666667 -1.466666666666667 0  2 -1.466666666666667 0  -2 -1.333333333333333 0  -1.866666666666667 -1.333333333333333 0  -1.733333333333333 -1.333333333333333 0  -1.6 -1.333333333333333 0  -1.466666666666667 -1.333333333333333 0  -1.333333333333333 -1.333333333333333 0  -1.2 -1.333333333333333 0  -1.066666666666667 -1.333333333333333 0  -0.9333333333333333 -1.333333333333333 0  -0.8 -1.333333333333333 0  -0.6666666666666667 -1.333333333333333 0  -0.5333333333333334 -1.333333333333333 0  -0.3999999999999999 -1.333333333333333 0  -0.2666666666666666 -1.333333333333333 0  -0.1333333333333333 -1.333333333333333 0  0 -1.333333333333333 0  0.1333333333333333 -1.333333333333333 0  0.2666666666666666 -1.333333333333333 0  0.3999999999999999 -1.333333333333333 0  0.5333333333333332 -1.333333333333333 0  0.6666666666666665 -1.333333333333333 0  0.7999999999999998 -1.333333333333333 0  0.9333333333333331 -1.333333333333333 0  1.066666666666667 -1.333333333333333 0  1.2 -1.333333333333333 0  1.333333333333333 -1.333333333333333 0  1.466666666666667 -1.333333333333333 0  1.6 -1.333333333333333 0  1.733333333333333 -1.333333333333333 0  1.866666666666667 -1.333333333333333 0  2 -1.333333333333333 0  -2 -1.2 0  -1.866666666666667 -1.2 0  -1.733333333333333 -1.2 0  -1.6 -1.2 0  -1.466666666666667 -1.2 0  -1.333333333333333 -1.2 0  -1.2 -1.2 0  -1.066666666666667 -1.2 0  -0.9333333333333333 -1.2 0  -0.8 -1.2 0  -0.6666666666666667 -1.2 0  -0.5333333333333334 -1.2 0  -0.3999999999999999 -1.2 0  -0.2666666666666666 -1.2 0  -0.1333333333333333 -1.2 0  0 -1.2 0  0.1333333333333333 -1.2 0  0.2666666666666666 -1.2 0  0.3999999999999999 -1.2 0  0.5333333333333332 -1.2 0  0.6666666666666665 -1.2 0  0.7999999999999998 -1.2 0  0.9333333333333331 -1.2 0  1.066666666666667 -1.2 0  1.2 -1.2 0  1.333333333333333 -1.2 0  1.466666666666667 -1.2 0  1.6 -1.2 0  1.733333333333333 -1.2 0  1.866666666666667 -1.2 0  2 -1.2 0  -2 -1.066666666666667 0  -1.866666666666667 -1.066666666666667 0  -1.733333333333333 -1.066666666666667 0  -1.6 -1.066666666666667 0  -1.466666666666667 -1.066666666666667 0  -1.333333333333333 -1.066666666666667 0  -1.2 -1.066666666666667 0  -1.066666666666667 -1.066666666666667 0  -0.9333333333333333 -1.066666666666667 0  -0.8 -1.066666666666667 0  -0.6666666666666667 -1.066666666666667 0  -0.5333333333333334 -1.066666666666667 0  -0.3999999999999999 -1.066666666666667 0  -0.2666666666666666 -1.066666666666667 0  -0.1333333333333333 -1.066666666666667 0  0 -1.066666666666667 0  0.1333333333333333 -1.066666666666667 0  0.2666666666666666 -1.066666666666667 0  0.3999999999999999 -1.066666666666667 0  0.5333333333333332 -1.066666666666667 0  0.6666666666666665 -1.066666666666667 0  0.7999999999999998 -1.066666666666667 0  0.9333333333333331 -1.066666666666667 0  1.066666666666667 -1.066666666666667 0  1.2 -1.066666666666667 0  1.333333333333333 -1.066666666666667 0  1.466666666666667 -1.066666666666667 0  1.6 -1.066666666666667 0  1.733333333333333 -1.066666666666667 0  1.866666666666667 -1.066666666666667 0  2 -1.066666666666667 0  -2 -0.9333333333333333 0  -1.866666666666667 -0.9333333333333333 0  -1.733333333333333 -0.9333333333333333 0  -1.6 -0.9333333333333333 0  -1.466666666666667 -0.9333333333333333 0  -1.333333333333333 -0.9333333333333333 0  -1.2 -0.9333333333333333 0  -1.066666666666667 -0.9333333333333333 0  -0.9333333333333333 -0.9333333333333333 0  -0.8 -0.9333333333333333 0  -0.6666666666666667 -0.9333333333333333 0  -0.5333333333333334 -0.9333333333333333 0  -0.3999999999999999 -0.9333333333333333 0  -0.2666666666666666 -0.9333333333333333 0  -0.1333333333333333 -0.9333333333333333 0  0 -0.9333333333333333 0  0.1333333333333333 -0.9333333333333333 0  0.2666666666666666 -0.9333333333333333 0  0.3999999999999999 -0.9333333333333333 0  0.5333333333333332 -0.9333333333333333 0  0.6666666666666665 -0.9333333333333333 0  0.7999999999999998 -0.9333333333333333 0  0.9333333333333331 -0.9333333333333333 0  1.066666666666667 -0.9333333333333333 0  1.2 -0.9333333333333333 0  1.333333333333333 -0.9333333333333333 0  1.466666666666667 -0.9333333333333333 0  1.6 -0.9333333333333333 0  1.733333333333333 -0.9333333333333333 0  1.866666666666667 -0.9333333333333333 0  2 -0.9333333333333333 0  -2 -0.8 0  -1.866666666666667 -0.8 0  -1.733333333333333 -0.8 0  -1.6 -0.8 0  -1.466666666666667 -0.8 0  -1.333333333333333 -0.8 0  -1.2 -0.8 0  -1.066666666666667 -0.8 0  -0.9333333333333333 -0.8 0  -0.8 -0.8 0  -0.6666666666666667 -0.8 0  -0.5333333333333334 -0.8 0  -0.3999999999999999 -0.8 0  -0.2666666666666666 -0.8 0  -0.1333333333333333 -0.8 0  0 -0.8 0  0.1333333333333333 -0.8 0  0.2666666666666666 -0.8 0  0.3999999999999999 -0.8 0  0.5333333333333332 -0.8 0  0.6666666666666665 -0.8 0  0.7999999999999998 -0.8 0  0.9333333333333331 -0.8 0  1.066666666666667 -0.8 0  1.2 -0.8 0  1.333333333333333 -0.8 0  1.466666666666667 -0.8 0  1.6 -0.8 0  1.733333333333333 -0.8 0  1.866666666666667 -0.8 0  2 -0.8 0  -2 -0.6666666666666667 0  -1.866666666666667 -0.
[...]
<PointData  Scalars="f_12"> 
<DataArray  type="Float64"  Name="f_12"  format="ascii">0.0000000000000000e+00  0.0000000000000000e+00  0.0000000000000000e+00  0.0000000000000000e+00  0.0000000000000000e+00  0.0000000000000000e+00  0.0000000000000000e+00  0.0000000000000000e+00  0.0000000000000000e+00  0.0000000000000000e+00  0.0000000000000000e+00  0.0000000000000000e+00  0.0000000000000000e+00  0.0000000000000000e+00  0.0000000000000000e+00  0.0000000000000000e+00  0.0000000000000000e+00  0.0000000000000000e+00  0.0000000000000000e+00  0.0000000000000000e+00  0.0000000000000000e+00  0.0000000000000000e+00  0.0000000000000000e+00  0.0000000000000000e+00  0.0000000000000000e+00  0.0000000000000000e+00  0.0000000000000000e+00  0.0000000000000000e+00  0.0000000000000000e+00  0.0000000000000000e+00  0.0000000000000000e+00  0.0000000000000000e+00  5.4706025426858420e-04  1.0897581750257466e-03  1.6244081978261603e-03  2.1468442987648273e-03  2.6523917676602084e-03  3.1358511558453529e-03  3.5915382440287360e-03  4.0133931512227666e-03  4.3951571165464377e-03  4.7306059695621239e-03  5.0138223591526037e-03  5.2394841034966340e-03  5.4031437023076539e-03  5.5014742486309484e-03  5.5324596450704554e-03  5.4955118984852782e-03  5.3915048525069904e-03  5.2227213601323159e-03  4.9927188335240008e-03  4.7061255422058915e-03  4.3683862277607011e-03  3.9854799607377750e-03  3.5636352790200409e-03  3.1090673535226899e-03  2.6277593335280931e-03  2.1253055356005865e-03  1.6068285560687306e-03  1.0769772906044580e-03  5.4001215517295910e-04  0.0000000000000000e+00  0.0000000000000000e+00  1.0897581750257471e-03  2.1711664403681837e-03  3.2366452597721636e-03  4.2778259008132320e-03  5.2853762081381392e-03  6.2489346594894052e-03  7.1571786855878236e-03  7.9980374717005982e-03  8.7590419229351627e-03  9.4277886308277350e-03  9.9924817308937371e-03  1.0442507418034914e-02  1.0768991321686936e-02  1.0965289329334665e-02  1.1027367738883654e-02  1.0954038297995775e-02  1.0747026793353275e-02  1.0410869077052923e-02  9.9526442368574018e-03  9.3815694511705395e-03  8.7084934479522823e-03  7.9453342036552611e-03  7.1045107575463161e-03  6.1984184354853507e-03  5.2389915435814890e-03  4.2373883837418681e-03  3.2038214179419397e-03  2.1475421360934058e-03  1.0769772906044587e-03  0.0000000000000000e+00  0.0000000000000000e+00  1.6244081978261603e-03  3.2366452597721641e-03  4.8252621252247623e-03  6.3777207780975403e-03  7.8800878180833346e-03  9.3169129093049856e-03  1.0671319354128421e-02  1.1925315475317966e-02  1.3060313045665531e-02  1.4057817102496878e-02  1.4900232880504965e-02  1.5571722250681387e-02  1.6059035316696880e-02  1.6352243390731533e-02  1.6445307428109478e-02  1.6336430393916728e-02  1.6028161548890793e-02  1.5527243333099459e-02  1.4844215124329230e-02  1.3992810295595124e-02  1.2989201495484520e-02  1.1851162119683751e-02  1.0597218301036089e-02  9.2458648830119582e-03  7.8149109598269397e-03  6.3210065672801826e-03  4.7793834630532094e-03  3.2038214179419418e-03  1.6068285560687321e-03  0.0000000000000000e+00  0.0000000000000000e+00  2.1468442987648286e-03  4.2778259008132329e-03  6.3777207780975386e-03  8.4299120359985248e-03  1.0415966903191312e-02  1.2315462312441893e-02  1.4106095566705331e-02  1.5764090074654492e-02  1.7264876827514344e-02  1.8584003873581962e-02  1.9698201780682753e-02  2.0586515575863440e-02  2.1231404775530007e-02  2.1619713845700647e-02  2.1743425769418446e-02  2.1600130377247909e-02  2.1193164859213978e-02  2.0531413861966618e-02  1.9628787785692405e-02  1.8503427212381962e-02  1.7176705909566433e-02  1.5672122162756666e-02  1.4014176652524050e-02  1.2227333977332272e-02  1.0335154463881445e-02  8.3596642420010383e-03  6.3210065672801852e-03  4.2373883837418715e-03  2.1253055356005883e-03  0.0000000000000000e+00  0.0000000000000000e+00  2.6523917676602102e-03  5.2853762081381400e-03  7.8800878180833311e-03  1.0415966903191312e-02  1.2870229168831539e-02  1.5217641857769122e-02  1.7430653497231201e-02  1.9479889873077742e-02  2.1334992210777181e-02  2.2965738430462162e-02  2.4343358417566834e-02  2.5441932642946793e-02  2.6239752467423199e-02  2.6720521301456409e-02  2.6874288492641767e-02  2.6698031202219360e-02  2.6195831324540578e-02  2.5378631544799156e-02  2.4263593219113574e-02  2.2873115040706941e-02  2.1233601821866087e-02  1.9374094197262503e-02  1.7324880593875911e-02  1.5116211493873419e-02  1.2777223107278947e-02  1.0335154463881448e-02  7.8149109598269449e-03  5.2389915435814942e-03  2.6277593335280952e-03  0.0000000000000000e+00  0.0000000000000000e+00  3.1358511558453551e-03  6.2489346594894078e-03  9.3169129093049908e-03  1.2315462312441896e-02  1.5217641857769132e-02  1.7993622681862900e-02  2.0610835804910802e-02  2.3034553661937796e-02  2.5228877339842710e-02  2.7158059760694204e-02  2.8788059594604464e-02  3.0088195068036259e-02  3.1032753742624441e-02  3.1602415229730493e-02  3.1785358728179933e-02  3.1577954847509936e-02  3.0984978721014470e-02  3.0019325199115439e-02  2.8701252570552682e-02  2.7057224223352910e-02  2.5118453658573438e-02  2.2919283774870444e-02  2.0495543915410197e-02  1.7883026703525221e-02  1.5116211493873415e-02  1.2227333977332271e-02  9.2458648830119582e-03  6.1984184354853516e-03  3.1090673535226930e-03  0.0000000000000000e+00  0.0000000000000000e+00  3.5915382440287412e-03  7.1571786855878288e-03  1.0671319354128437e-02  1.4106095566705347e-02  1.7430653497231212e-02  2.0610835804910823e-02  2.3609345872403830e-02  2.6386409283900899e-02  2.8900900855857461e-02  3.1111857642984797e-02  3.2980257606043485e-02  3.4470914165951730e-02  3.5554321746937782e-02  3.6208288300216891e-02  3.6419207770394785e-02  3.6182856954486940e-02  3.5504644145234646e-02  3.4399287090835569e-02  3.2889950135402683e-02  3.1006919697708017e-02  2.8785938598054926e-02  2.6266349093522365e-02  2.3489209023445406e-02  2.0495543915410207e-02  1.7324880593875908e-02  1.4014176652524036e-02  1.0597218301036075e-02  7.1045107575463135e-03  3.5636352790200418e-03  0.0000000000000000e+00  0.0000000000000000e+00  4.0133931512227727e-03  7.9980374717006156e-03  1.1925315475317999e-02  1.5764090074654517e-02  1.9479889873077760e-02  2.3034553661937820e-02  2.6386409283900913e-02  2.9491008370023816e-02  3.2302382092549528e-02  3.4774729422512085e-02  3.6864403720049482e-02  3.8532030412573734e-02  3.9744571458863752e-02  4.0477153131760764e-02  4.0714492473196494e-02  4.0451792850203144e-02  3.9695026960687357e-02  3.8460581656791601e-02  3.6774297478913212e-02  3.4669990974847076e-02  3.2187594226659476e-02  2.9371078968255200e-02  2.6266349093522368e-02  2.2919283774870437e-02  1.9374094197262510e-02  1.5672122162756662e-02  1.1851162119683737e-02  7.9453342036552559e-03  3.9854799607377750e-03  0.0000000000000000e+00  0.0000000000000000e+00  4.3951571165464455e-03  8.7590419229351835e-03  1.3060313045665566e-02  1.7264876827514389e-02  2.1334992210777226e-02  2.5228877339842748e-02  2.8900900855857475e-02  3.2302382092549556e-02  3.5382962583181916e-02  3.8092452420433971e-02  4.0383004864258311e-02  4.2211436207379556e-02  4.3541489046952188e-02  4.4345837843206302e-02  4.4607656093568933e-02  4.4321602734807633e-02  4.3494137788844388e-02  4.2143138602157813e-02  4.0296852171983956e-02  3.7992279592866010e-02  3.5273139570149166e-02  3.2187594226659490e-02  2.8785938598054939e-02  2.5118453658573445e-02  2.1233601821866090e-02  1.7176705909566437e-02  1.2989201495484532e-02  8.7084934479522858e-03  4.3683862277607080e-03  0.0000000000000000e+00  0.0000000000000000e+00  4.7306059695621360e-03  9.4277886308277558e-03  1.4057817102496921e-02  1.8584003873582017e-02  2.2965738430462242e-02  2.7158059760694259e-02  3.1111857642984828e-02  3.4774729422512113e-02  3.8092452420433985e-02  4.1010968671949859e-02  4.3478724572093522e-02  4.5449168668651160e-02  4.6883190342280313e-02  4.7751282701185532e-02  4.8035234844076714e-02  4.7729199709085034e-02  4.6840040044062059e-02  4.5386921032453814e-02  4.3400187202266557e-02  4.0919626526402277e-02  3.7992279592866052e-02  3.4669990974847138e-02  3.1006919697708028e-02  2.7057224223352935e-02  2.2873115040706972e-02  1.8503427212381990e-02  1.3992810295595145e-02  9.3815694511705551e-03  4.7061255422059045e-03  0.0000000000000000e+00  0.0000000000000000e+00  5.0138223591526124e-03  9.9924817308937597e-03  1.4900232880505000e-02  1.9698201780682795e-02  2.4343358417566897e-02  2.8788059594604523e-02  3.2980257606043513e-02  3.6864403720049538e-02  4.0383004864258346e-02  4.3478724572093522e-02  4.6096861753406583e-02  4.8187998973128289e-02  4.9710589983228595e-02  5.0633256659028153e-02  5.0936588426417927e-02  5.0614280633592815e-02  4.9673507916253315e-02  4.8134498534682650e-02  4.6029348947362395e-02  4.3400187202266655e-02  4.0296852171984025e-02  3.6774297478913351e-02  3.2889950135402718e-02  2.8701252570552737e-02  2.4263593219113623e-02  1.9628787785692447e-02  1.4844215124329261e-02  9.9526442368574365e-03  4.9927188335240182e-03  0.0000000000000000e+00  0.0000000000000000e+00  5.2394841034966409e-03  1.0442507418034925e-02  1.5571722250681416e-02  2.0586515575863471e-02  2.5441932642946832e-02  3.0088195068036293e-02  3.4470914165951778e-02  3.8532030412573783e-02  4.2211436207379605e-02  4.5449168668651195e-02  4.8187998973128261e-02  5.0376200797243760e-02  5.1970257269705195e-02  5.2937266040050605e-02  5.3256825825028498e-02  5.2922232946569225e-02  5.1940878549969746e-02  5.0333810242595478e-02  4.8134498534682664e-02  4.5386921032453870e-02  4.2143138602157876e-02  3.8460581656791712e-02  3.4399287090835617e-02  3.0019325199115501e-02  2.5378631544799211e-02  2.0531413861966663e-02  1.5527243333099497e-02  1.0410869077052951e-02  5.2227213601323324e-03  0.0000000000000000e+00  0.0000000000000000e+00  5.4031437023076600e-03  1.0768991321686945e-02  1.6059035316696890e-02  2.1231404775530035e-02  2.6239752467423227e-02  3.1032753742624476e-02  3.5554321746937824e-02  3.9744571458863814e-02  4.3541489046952216e-02  4.6883190342280327e-02  4.9710589983228581e-02  5.1970257269705160e-02  5.3617210665508189e-02  5.4617402850286885e-02  5.4949672501192863e-02  5.4606985369937674e-02  5.3596851227247964e-02  5.1940878549969788e-02  4.9673507916253391e-02  4.6840040044062101e-02  4.3494137788844457e-02  3.9695026960687468e-02  3.5504644145234722e-02  3.0984978721014540e-02  2.6195831324540644e-02  2.1193164859214030e-02  1.6028161548890831e-02  1.0747026793353305e-02  5.3915048525070069e-03  0.0000000000000000e+00  0.0000000000000000e+00  5.5014742486309554e-03  1.0965289329334670e-02  1.6352243390731526e-02  2.1619713845700647e-02  2.6720521301456416e-02  3.1602415229730507e-02  3.6208288300216940e-02  4.0477153131760826e-02  4.4345837843206344e-02  4.7751282701185581e-02  5.0633256659028202e-02  5.2937266040050619e-02  5.4617402850286892e-02  5.5638879924172158e-02  5.5980024599571368e-02  5.5633549664306524e-02  5.4606985369937723e-02  5.2922232946569260e-02  5.0614280633592870e-02  4.7729199709085096e-02  4.4321602734807716e-02  4.0451792850203248e-02  3.6182856954487023e-02  3.1577954847510012e-02  2.6698031202219422e-02  2.1600130377247964e-02  1.6336430393916756e-02  1.0954038297995806e-02  5.4955118984852964e-03  0.0000000000000000e+00  0.0000000000000000e+00  5.5324596450704632e-03  1.1027367738883673e-02  1.6445307428109481e-02  2.1743425769418442e-02  2.6874288492641778e-02  3.1785358728179960e-02  3.6419207770394826e-02  4.0714492473196549e-02  4.4607656093568940e-02  4.8035234844076770e-02  5.0936588426417996e-02  5.3256825825028567e-02  5.4949672501192919e-02  5.5980024599571382e-02  5.6325960178780200e-02  5.5980024599571368e-02  5.4949672501192884e-02  5.3256825825028505e-02  5.0936588426417934e-02  4.8035234844076756e-02  4.4607656093568961e-02  4.0714492473196591e-02  3.6419207770394875e-02  3.1785358728179995e-02  2.6874288492641830e-02  2.1743425769418501e-02  1.6445307428109526e-02  1.1027367738883688e-02  5.5324596450704736e-03  0.0000000000000000e+00  0.0000000000000000e+00  5.4955118984852868e-03  1.0954038297995789e-02  1.6336430393916735e-02  2.1600130377247929e-02  2.6698031202219395e-02  3.1577954847509984e-02  3.6182856954486989e-02  4.0451792850203207e-02  4.4321602734807744e-02  4.7729199709085124e-02  5.0614280633592940e-02  5.2922232946569336e-02  5.4606985369937806e-02  5.5633549664306593e-02  5.5980024599571396e-02  5.5638879924172172e-02  5.4617402850286927e-02  5.2937266040050564e-02  5.0633256659028153e-02  4.7751282701185560e-02  4.4345837843206358e-02  4.0477153131760868e-02  3.6208288300216981e-02  3.1602415229730549e-02  2.6720521301456461e-02  2.1619713845700696e-02  1.6352243390731575e-02  1.0965289329334695e-02  5.5014742486309684e-03  0.0000000000000000e+00  0.0000000000000000e+00  5.3915048525070008e-03  1.0747026793353296e-02  1.6028161548890817e-02  2.1193164859214013e-02  2.6195831324540633e-02  3.0984978721014553e-02  3.5504644145234694e-02  3.9695026960687413e-02  4.3494137788844457e-02  4.6840040044062142e-02  4.9673507916253481e-02  5.1940878549969871e-02  5.3596851227248075e-02  5.4606985369937834e-02  5.4949672501192925e-02  5.4617402850286906e-02  5.3617210665508203e-02  5.1970257269705181e-02  4.9710589983228595e-02  4.6883190342280355e-02  4.3541489046952250e-02  3.9744571458863863e-02  3.5554321746937845e-02  3.1032753742624472e-02  2.6239752467423237e-02  2.1231404775530052e-02  1.6059035316696918e-02  1.0768991321686967e-02  5.4031437023076738e-03  0.0000000000000000e+00  0.0000000000000000e+00  5.2227213601323246e-03  1.0410869077052940e-02  1.5527243333099494e-02  2.0531413861966656e-02  2.5378631544799198e-02  3.0019325199115505e-02  3.4399287090835604e-02  3.8460581656791649e-02  4.2143138602157883e-02  4.5386921032453890e-02  4.8134498534682740e-02  5.0333810242595547e-02  5.1940878549969850e-02  5.2922232946569316e-02  5.3256825825028553e-02  5.2937266040050619e-02  5.1970257269705195e-02  5.0376200797243753e-02  4.8187998973128261e-02  4.5449168668651181e-02  4.2211436207379618e-02  3.8532030412573810e-02  3.4470914165951792e-02  3.0088195068036273e-02  2.5441932642946828e-02  2.0586515575863475e-02  1.5571722250681420e-02  1.0442507418034942e-02  5.2394841034966513e-03  0.0000000000000000e+00  0.0000000000000000e+00  4.9927188335240104e-03  9.9526442368574192e-03  1.4844215124329258e-02  1.9628787785692433e-02  2.4263593219113623e-02  2.8701252570552747e-02  3.2889950135402718e-02  3.6774297478913295e-02  4.0296852171984025e-02  4.3400187202266641e-02  4.6029348947362450e-02  4.8134498534682726e-02  4.9673507916253433e-02  5.0614280633592898e-02  5.0936588426417989e-02  5.0633256659028167e-02  4.9710589983228588e-02  4.8187998973128254e-02  4.6096861753406576e-02  4.3478724572093536e-02  4.0383004864258380e-02  3.6864403720049572e-02  3.2980257606043499e-02  2.8788059594604509e-02  2.4343358417566883e-02  1.9698201780682795e-02  1.4900232880505003e-02  9.9924817308937753e-03  5.0138223591526219e-03  0.0000000000000000e+00  0.0000000000000000e+00  4.7061255422059011e-03  9.3815694511705534e-03  1.3992810295595152e-02  1.8503427212381997e-02  2.2873115040707003e-02  2.7057224223352962e-02  3.1006919697708031e-02  3.4669990974847131e-02  3.7992279592866059e-02  4.0919626526402318e-02  4.3400187202266675e-02  4.5386921032453911e-02  4.6840040044062115e-02  4.7729199709085103e-02  4.8035234844076763e-02  4.7751282701185553e-02  4.6883190342280327e-02  4.5449168668651230e-02  4.3478724572093570e-02  4.1010968671949928e-02  3.8092452420434061e-02  3.4774729422512161e-02  3.1111857642984873e-02  2.7158059760694270e-02  2.2965738430462256e-02  1.8584003873582035e-02  1.4057817102496921e-02  9.4277886308277714e-03  4.7306059695621482e-03  0.0000000000000000e+00  0.0000000000000000e+00  4.3683862277607097e-03  8.7084934479523014e-03  1.2989201495484558e-02  1.7176705909566457e-02  2.1233601821866122e-02  2.5118453658573483e-02  2.8785938598054957e-02  3.2187594226659517e-02  3.5273139570149208e-02  3.7992279592866100e-02  4.0296852171984053e-02  4.2143138602157924e-02  4.3494137788844485e-02  4.4321602734807682e-02  4.4607656093568974e-02  4.4345837843206330e-02  4.3541489046952202e-02  4.2211436207379674e-02  4.0383004864258436e-02  3.8092452420434117e-02  3.5382962583182062e-02  3.2302382092549674e-02  2.8900900855857573e-02  2.5228877339842790e-02  2.1334992210777275e-02  1.7264876827514434e-02  1.3060313045665586e-02  8.7590419229352009e-03  4.3951571165464593e-03  0.0000000000000000e+00  0.0000000000000000e+00  3.9854799607377837e-03  7.9453342036552820e-03  1.1851162119683791e-02  1.5672122162756708e-02  1.9374094197262565e-02  2.2919283774870500e-02  2.6266349093522413e-02  2.9371078968255238e-02  3.2187594226659524e-02  3.4669990974847166e-02  3.6774297478913344e-02  3.8460581656791719e-02  3.9695026960687468e-02  4.0451792850203241e-02  4.0714492473196598e-02  4.0477153131760847e-02  3.9744571458863849e-02  3.8532030412573852e-02  3.6864403720049642e-02  3.4774729422512245e-02  3.2302382092549736e-02  2.9491008370023979e-02  2.6386409283901031e-02  2.3034553661937913e-02  1.9479889873077836e-02  1.5764090074654576e-02  1.1925315475318035e-02  7.9980374717006399e-03  4.0133931512227874e-03  0.0000000000000000e+00  0.0000000000000000e+00  3.5636352790200491e-03  7.1045107575463335e-03  1.0597218301036115e-02  1.4014176652524090e-02  1.7324880593875967e-02  2.0495543915410259e-02  2.3489209023445447e-02  2.6266349093522386e-02  2.8785938598054936e-02  3.1006919697708038e-02  3.2889950135402746e-02  3.4399287090835645e-02  3.5504644145234736e-02  3.6182856954487023e-02  3.6419207770394847e-02  3.6208288300216954e-02  3.5554321746937852e-02  3.4470914165951827e-02  3.2980257606043596e-02  3.1111857642984922e-02  2.8900900855857628e-02  2.6386409283901062e-02  2.3609345872403945e-02  2.0610835804910910e-02  1.7430653497231278e-02  1.4106095566705399e-02  1.0671319354128468e-02  7.1571786855878497e-03  3.5915382440287525e-03  0.0000000000000000e+00  0.0000000000000000e+00  3.1090673535226977e-03  6.1984184354853646e-03  9.2458648830119859e-03  1.2227333977332305e-02  1.5116211493873462e-02  1.7883026703525262e-02  2.0495543915410242e-02  2.2919283774870462e-02  2.5118453658573452e-02  2.7057224223352952e-02  2.8701252570552758e-02  3.0019325199115522e-02  3.0984978721014547e-02  3.1577954847509984e-02  3.1785358728179974e-02  3.1602415229730549e-02  3.1032753742624517e-02  3.0088195068036328e-02  2.8788059594604579e-02  2.7158059760694339e-02  2.5228877339842855e-02  2.3034553661937941e-02  2.0610835804910917e-02  1.7993622681862959e-02  1.5217641857769177e-02  1.2315462312441933e-02  9.3169129093050168e-03  6.2489346594894243e-03  3.1358511558453621e-03  0.0000000000000000e+00  0.0000000000000000e+00  2.6277593335280983e-03  5.2389915435815037e-03  7.8149109598269623e-03  1.0335154463881474e-02  1.2777223107278976e-02  1.5116211493873452e-02  1.7324880593875935e-02  1.9374094197262510e-02  2.1233601821866090e-02  2.2873115040706975e-02  2.4263593219113613e-02  2.5378631544799211e-02  2.6195831324540644e-02  2.6698031202219401e-02  2.6874288492641795e-02  2.6720521301456492e-02  2.6239752467423279e-02  2.5441932642946873e-02  2.4343358417566942e-02  2.2965738430462321e-02  2.1334992210777334e-02  1.9479889873077878e-02  1.7430653497231299e-02  1.5217641857769188e-02  1.2870229168831579e-02  1.0415966903191340e-02  7.8800878180833537e-03  5.2853762081381504e-03  2.6523917676602158e-03  0.0000000000000000e+00  0.0000000000000000e+00  2.1253055356005913e-03  4.2373883837418785e-03  6.3210065672801973e-03  8.3596642420010591e-03  1.0335154463881474e-02  1.2227333977332297e-02  1.4014176652524059e-02  1.5672122162756666e-02  1.7176705909566433e-02  1.8503427212381983e-02  1.9628787785692436e-02  2.0531413861966667e-02  2.1193164859214030e-02  2.1600130377247947e-02  2.1743425769418488e-02  2.1619713845700699e-02  2.1231404775530083e-02  2.0586515575863506e-02  1.9698201780682833e-02  1.8584003873582073e-02  1.7264876827514465e-02  1.5764090074654607e-02  1.4106095566705414e