<?xml version="1.0"?>
<VTKFile type="UnstructuredGrid"  version="0.1"  >
<UnstructuredGrid>
<Piece  NumberOfPoints="81" NumberOfCells="128">
<Points>
<DataArray  type="Float64"  NumberOfComponents="3"  format="ascii">0 0 0  0.125 0 0  0.25 0 0  0.375 0 0  0.5 0 0  0.625 0 0  0.75 0 0  0.875 0 0  1 0 0  0 0.125 0  0.125 0.125 0  0.25 0.125 0  0.375 0.125 0  0.5 0.125 0  0.625 0.125 0  0.75 0.125 0  0.875 0.125 0  1 0.125 0  0 0.25 0  0.125 0.25 0  0.25 0.25 0  0.375 0.25 0  0.5 0.25 0  0.625 0.25 0  0.75 0.25 0  0.875 0.25 0  1 0.25 0  0 0.375 0  0.125 0.375 0  0.25 0.375 0  0.375 0.375 0  0.5 0.375 0  0.625 0.375 0  0.75 0.375 0  0.875 0.375 0  1 0.375 0  0 0.5 0  0.125 0.5 0  0.25 0.5 0  0.375 0.5 0  0.5 0.5 0  0.625 0.5 0  0.75 0.5 0  0.875 0.5 0  1 0.5 0  0 0.625 0  0.125 0.625 0  0.25 0.625 0  0.375 0.625 0  0.5 0.625 0  0.625 0.625 0  0.75 0.625 0  0.875 0.625 0  1 0.625 0  0 0.75 0  0.125 0.75 0  0.25 0.75 0  0.375 0.75 0  0.5 0.75 0  0.625 0.75 0  0.75 0.75 0  0.875 0.75 0  1 0.75 0  0 0.875 0  0.125 0.875 0  0.25 0.875 0  0.375 0.875 0  0.5 0.875 0  0.625 0.875 0  0.75 0.875 0  0.875 0.875 0  1 0.875 0  0 1 0  0.125 1 0  0.25 1 0  0.375 1 0  0.5 1 0  0.625 1 0  0.75 1 0  0.875 1 0  1 1 0  </DataArray>
</Points>
<Cells>
<DataArray  type="UInt32"  Name="connectivity"  format="ascii">0 1 10  0 9 10  1 2 11  1 10 11  2 3 12  2 11 12  3 4 13  3 12 13  4 5 14  4 13 14  5 6 15  5 14 15  6 7 16  6 15 16  7 8 17  7 16 17  9 10 19  9 18 19  10 11 20  10 19 20  11 12 21  11 20 21  12 13 22  12 21 22  13 14 23  13 22 23  14 15 24  14 23 24  15 16 25  15 24 25  16 17 26  16 25 26  18 19 28  18 27 28  19 20 29  19 28 29  20 21 30  20 29 30  21 22 31  21 30 31  22 23 32  22 31 32  23 24 33  23 32 33  24 25 34  24 33 34  25 26 35  25 34 35  27 28 37  27 36 37  28 29 38  28 37 38  29 30 39  29 38 39  30 31 40  30 39 40  31 32 41  31 40 41  32 33 42  32 41 42  33 34 43  33 42 43  34 35 44  34 43 44  36 37 46  36 45 46  37 38 47  37 46 47  38 39 48  38 47 48  39 40 49  39 48 49  40 41 50  40 49 50  41 42 51  41 50 51  42 43 52  42 51 52  43 44 53  43 52 53  45 46 55  45 54 55  46 47 56  46 55 56  47 48 57  47 56 57  48 49 58  48 57 58  49 50 59  49 58 59  50 51 60  50 59 60  51 52 61  51 60 61  52 53 62  52 61 62  54 55 64  54 63 64  55 56 65  55 64 65  56 57 66  56 65 66  57 58 67  57 66 67  58 59 68  58 67 68  59 60 69  59 68 69  60 61 70  60 69 70  61 62 71  61 70 71  63 64 73  63 72 73  64 65 74  64 73 74  65 66 75  65 74 75  66 67 76  66 75 76  67 68 77  67 76 77  68 69 78  68 77 78  69 70 79  69 78 79  70 71 80  70 79 80  </DataArray>
<DataArray  type="UInt32"  Name="offsets"  format="ascii">3 6 9 12 15 18 21 24 27 30 33 36 39 42 45 48 51 54 57 60 63 66 69 72 75 78 81 84 87 90 93 96 99 102 105 108 111 114 117 120 123 126 129 132 135 138 141 144 147 150 153 156 159 162 165 168 171 174 177 180 183 186 189 192 195 198 201 204 207 210 213 216 219 222 225 228 231 234 237 240 243 246 249 252 255 258 261 264 267 270 273 276 279 282 285 288 291 294 297 300 303 306 309 312 315 318 321 324 327 330 333 336 339 342 345 348 351 354 357 360 363 366 369 372 375 378 381 384 </DataArray>
<DataArray  type="UInt8"  Name="types"  format="ascii">5 5 5 5 5 5 5 5 5 5 5 5 5 5 5 5 5 5 5 5 5 5 5 5 5 5 5 5 5 5 5 5 5 5 5 5 5 5 5 5 5 5 5 5 5 5 5 5 5 5 5 5 5 5 5 5 5 5 5 5 5 5 5 5 5 5 5 5 5 5 5 5 5 5 5 5 5 5 5 5 5 5 5 5 5 5 5 5 5 5 5 5 5 5 5 5 5 5 5 5 5 5 5 5 5 5 5 5 5 5 5 5 5 5 5 5 5 5 5 5 5 5 5 5 5 5 5 5 </DataArray>
</Cells>
<PointData  Scalars="f_11"> 
<DataArray  type="Float64"  Name="f_11"  format="ascii">1.1859999999999999e+02  1.1861562499999999e+02  1.1866249999999999e+02  1.1874062499999999e+02  1.1884999999999999e+02  1.1899062499999999e+02  1.1916249999999999e+02  1.1936562499999999e+02  1.1959999999999999e+02  1.1864687499999999e+02  1.1866249999999999e+02  1.1870937499999997e+02  1.1878749999999995e+02  1.1889687499999995e+02  1.1903749999999995e+02  1.1920937499999992e+02  1.1941249999999997e+02  1.1964687499999999e+02  1.1878749999999999e+02  1.1880312499999995e+02  1.1884999999999999e+02  1.1892812499999998e+02  1.1903749999999999e+02  1.1917812499999998e+02  1.1934999999999998e+02  1.1955312499999999e+02  1.1978749999999999e+02  1.1902187499999999e+02  1.1903749999999997e+02  1.1908437500000001e+02  1.1916250000000004e+02  1.1927187500000004e+02  1.1941250000000001e+02  1.1958437499999999e+02  1.1978749999999999e+02  1.2002187499999999e+02  1.1934999999999999e+02  1.1936562499999995e+02  1.1941250000000002e+02  1.1949062500000007e+02  1.1960000000000005e+02  1.1974062500000004e+02  1.1991250000000001e+02  1.2011562499999999e+02  1.2034999999999999e+02  1.1977187499999999e+02  1.1978749999999997e+02  1.1983437500000001e+02  1.1991250000000004e+02  1.2002187500000004e+02  1.2016250000000004e+02  1.2033437500000004e+02  1.2053749999999999e+02  1.2077187499999999e+02  1.2028749999999999e+02  1.2030312499999995e+02  1.2035000000000001e+02  1.2042812500000001e+02  1.2053750000000002e+02  1.2067812500000002e+02  1.2085000000000002e+02  1.2105312499999997e+02  1.2128749999999999e+02  1.2089687499999999e+02  1.2091249999999997e+02  1.2095937500000001e+02  1.2103750000000001e+02  1.2114687500000001e+02  1.2128750000000001e+02  1.2145937500000002e+02  1.2166249999999999e+02  1.2189687499999999e+02  1.2159999999999999e+02  1.2161562499999999e+02  1.2166249999999999e+02  1.2174062499999999e+02  1.2184999999999999e+02  1.2199062499999999e+02  1.2216249999999999e+02  1.2236562499999999e+02  1.2259999999999999e+02  </DataArray> 
</PointData> 
</Piece>
</UnstructuredGrid>
</VTKFile>